

 Parallel Execution: Process Information
 ==============================================================================
 Rank   Node Name                              NodeID   MyNodeRank  NodeMaster
    0   Amandas-Mac-mini.local                    0          0          0
    1   Amandas-Mac-mini.local                    0          1         -1
    2   Amandas-Mac-mini.local                    0          2         -1
    3   Amandas-Mac-mini.local                    0          3         -1
 ==============================================================================


May use up to 7812MB of RAM as shared memory on node 0

 *******************************************************************************
 *                                                                             *
 *  --------------------------------                                           *
 *   Amsterdam Modeling Suite (AMS)              2023.103                      *
 *  --------------------------------                                           *
 *                                               r114206 2023-08-04            *
 *                                                                             *
 *                                                                             *
 *                              =================                              *
 *                              |               |                              *
 *                              |     A M S     |                              *
 *                              |               |                              *
 *                              =================                              *
 *                                                                             *
 *                                                                             *
 *   Online information and documentation:  https://www.scm.com/support/       *
 *   E-mail:  support@scm.com   info@scm.com                                   *
 *                                                                             *
 *   Scientific publications using AMS results must be properly referenced     *
 *   See the User Manuals (or the web site) for recommended citations          *
 *   The terms and conditions of the End User License Agreement apply to       *
 *   the use of AMS, https://www.scm.com/license-terms/                        *
 *                                                                             *
 **********************  x86_64_darwin_intel / openmpi  ************************
 
 Licensed to: Dr. Amanda Morgenstern / University of Colorado / Colorado Springs / Colorado / USA 2024-12-20 19:21:38
 SCM User ID: u21568
  
 AMS 2023.103  RunTime: May23-2025 14:13:59  ShM Nodes: 1  Procs: 4

 AMS jobname: ams
 AMS jobid  : 315365115

 Start   directory: /Users/amorgenstern/Library/CloudStorage/OneDrive-UniversityofColoradoColoradoSprings/Research/ESI_ISF_Gertner_Redmon_Cook/manuscript/Final_AMS_Calcs/HEXS/Intermediate2_stabilities/tmp.amorgenstern.56890.0.noindex/
 Results directory: /Users/amorgenstern/Library/CloudStorage/OneDrive-UniversityofColoradoColoradoSprings/Research/ESI_ISF_Gertner_Redmon_Cook/manuscript/Final_AMS_Calcs/HEXS/Intermediate2_stabilities/HMT_I2_B3LYP_TZP_gas_fragments_noH2O_v2.rest.results/
 Scratch directory: /tmp/amstmp_ams_kid0.315365115/


 Communication costs MPI_COMM_WORLD:      0.312 usec per message,   0.0038 usec per 8-byte item
 Communication costs for intra-node:      0.401 usec per message,   0.0039 usec per 8-byte item

 RNG seed: -1699140016 936741426 886114485 1208308933 2036133 1405963159 189480223 -40370353



                      ************************************************************************
                      *  ADF 2023.103  RunTime: May23-2025 14:14:00  ShM Nodes: 1  Procs: 4  *
                      ************************************************************************
  
 Geometry symmetrized to: C1
 Geometry reoriented with symmetry: NOSYM

       ****************************
       * SINGLE POINT CALCULATION *
       ****************************
 
--------
Geometry
--------
Formula: C5H12N4
Atoms
  Index Symbol   x (angstrom)   y (angstrom)   z (angstrom)
      1      N     1.06306621    -0.59609851    -0.41733093       region=rest
      2      N    -0.65516787    -1.06362609     1.21670230       region=rest
      3      N     1.12700121     0.96125804     1.50147096       region=rest
      4      N    -0.74760287     0.95242424    -0.11184579       region=rest
      5      C     0.29206202    -1.65658470     0.23805644       region=rest
      6      H     0.51298163     2.57284993     0.24156799       region=rest
      7      C     1.93194498     0.12875667     0.45166622       region=rest
      8      C     0.14241659     0.32502151    -1.09981055       region=rest
      9      C    -1.54781948    -0.08363680     0.54708513       region=rest
     10      C     0.00491806     1.77558808     0.77800056       region=rest
     11      H    -0.22016745    -2.21862586    -0.54985452       region=rest
     12      H     0.96576337    -2.33514675     0.76058331       region=rest
     13      H    -1.20221536    -1.79226872     1.66802879       region=rest
     14      H     0.60300102     0.24361254     2.03439702       region=rest
     15      H     2.57582966    -0.53643896     1.02593325       region=rest
     16      H     2.53314686     0.84563466    -0.10125544       region=rest
     17      H    -0.45404889    -0.22995694    -1.82105901       region=rest
     18      H     0.70879137     1.09137998    -1.62852965       region=rest
     19      H    -2.20077508     0.37079376     1.29196504       region=rest
     20      H    -2.17292626    -0.54775188    -0.22281909       region=rest
     21      H    -0.61968848     2.19242150     1.56741438       region=rest
 
Total System Charge             0.00000
Bonding info available!
 
 
----------------
ADF Engine Input
----------------
 
 Basis
 Type TZP
 Core None
 End
 XC
 Hybrid B3LYP
 End
 Title rest fragment
 Relativity
 Level None
 End
 Symmetry NOSYM
 

 Title: rest fragment

 *** adf ***



 ===========================
 A T T A C H E D   F I L E S
 ===========================
  



 ===============================
 M O D E L   P A R A M E T E R S
 ===============================
  
 DENSITY FUNCTIONAL POTENTIAL (scf)
    Hybrid:                            B3LYP                                   == Not Default ==

 SPIN  (restricted / unrestr.)
    Molecule:                          Restricted                               
    Fragments:                         Restricted                               

 OTHER ASPECTS
    Relativistic Corrections:          ---                                     == Not Default ==

    Nuclear Charge Density Model:      Point Charge Nuclei                      
    Core Treatment:                    Frozen Orbital(s)                        

    Hyperfine or Zeeman Interaction:   ---                                      


 Fragment File(s)
 ----------------
 N:
         file : /Users/amorgenstern/Library/CloudStorage/OneDrive-UniversityofColoradoColoradoSprings/Research/ESI_ISF_Gertner_Redmon_Cook/manuscript/Final_AMS_Calcs/HEXS/Intermediate2_stabilities/HMT_I2_B3LYP_TZP_gas_fragments_noH2O_v2.rest.results/t21.300AD590.N
         jobid: 0
         title: Nitrogen (TZP)
 C:
         file : /Users/amorgenstern/Library/CloudStorage/OneDrive-UniversityofColoradoColoradoSprings/Research/ESI_ISF_Gertner_Redmon_Cook/manuscript/Final_AMS_Calcs/HEXS/Intermediate2_stabilities/HMT_I2_B3LYP_TZP_gas_fragments_noH2O_v2.rest.results/t21.A121E74.C
         jobid: 0
         title: Carbon (TZP)
 H:
         file : /Users/amorgenstern/Library/CloudStorage/OneDrive-UniversityofColoradoColoradoSprings/Research/ESI_ISF_Gertner_Redmon_Cook/manuscript/Final_AMS_Calcs/HEXS/Intermediate2_stabilities/HMT_I2_B3LYP_TZP_gas_fragments_noH2O_v2.rest.results/t21.C53890E.H
         jobid: 0
         title: Hydrogen (TZP)



 ===============
 G E O M E T R Y  ***  3D  Molecule  ***
 ===============
  

 ATOMS
 =====                            X Y Z                    CHARGE
                                (Angstrom)             Nucl     +Core       At.Mass
                       --------------------------    ----------------       -------
    1  N               1.0631   -0.5961   -0.4173      7.00      7.00       14.0031
    2  N              -0.6552   -1.0636    1.2167      7.00      7.00       14.0031
    3  N               1.1270    0.9613    1.5015      7.00      7.00       14.0031
    4  N              -0.7476    0.9524   -0.1118      7.00      7.00       14.0031
    5  C               0.2921   -1.6566    0.2381      6.00      6.00       12.0000
    6  H               0.5130    2.5728    0.2416      1.00      1.00        1.0078
    7  C               1.9319    0.1288    0.4517      6.00      6.00       12.0000
    8  C               0.1424    0.3250   -1.0998      6.00      6.00       12.0000
    9  C              -1.5478   -0.0836    0.5471      6.00      6.00       12.0000
   10  C               0.0049    1.7756    0.7780      6.00      6.00       12.0000
   11  H              -0.2202   -2.2186   -0.5499      1.00      1.00        1.0078
   12  H               0.9658   -2.3351    0.7606      1.00      1.00        1.0078
   13  H              -1.2022   -1.7923    1.6680      1.00      1.00        1.0078
   14  H               0.6030    0.2436    2.0344      1.00      1.00        1.0078
   15  H               2.5758   -0.5364    1.0259      1.00      1.00        1.0078
   16  H               2.5331    0.8456   -0.1013      1.00      1.00        1.0078
   17  H              -0.4540   -0.2300   -1.8211      1.00      1.00        1.0078
   18  H               0.7088    1.0914   -1.6285      1.00      1.00        1.0078
   19  H              -2.2008    0.3708    1.2920      1.00      1.00        1.0078
   20  H              -2.1729   -0.5478   -0.2228      1.00      1.00        1.0078
   21  H              -0.6197    2.1924    1.5674      1.00      1.00        1.0078


 FRAGMENTS
 =========                                     Atoms in this Fragment     Cart. coord.s (Angstrom)
                                               -------------------------------------------------------
    1  N                                                 1  N            1.0631   -0.5961   -0.4173
    2  N                                                 2  N           -0.6552   -1.0636    1.2167
    3  N                                                 3  N            1.1270    0.9613    1.5015
    4  N                                                 4  N           -0.7476    0.9524   -0.1118
    5  C                                                 5  C            0.2921   -1.6566    0.2381
    6  C                                                 7  C            1.9319    0.1288    0.4517
    7  C                                                 8  C            0.1424    0.3250   -1.0998
    8  C                                                 9  C           -1.5478   -0.0836    0.5471
    9  C                                                10  C            0.0049    1.7756    0.7780
   10  H                                                 6  H            0.5130    2.5728    0.2416
   11  H                                                11  H           -0.2202   -2.2186   -0.5499
   12  H                                                12  H            0.9658   -2.3351    0.7606
   13  H                                                13  H           -1.2022   -1.7923    1.6680
   14  H                                                14  H            0.6030    0.2436    2.0344
   15  H                                                15  H            2.5758   -0.5364    1.0259
   16  H                                                16  H            2.5331    0.8456   -0.1013
   17  H                                                17  H           -0.4540   -0.2300   -1.8211
   18  H                                                18  H            0.7088    1.0914   -1.6285
   19  H                                                19  H           -2.2008    0.3708    1.2920
   20  H                                                20  H           -2.1729   -0.5478   -0.2228
   21  H                                                21  H           -0.6197    2.1924    1.5674



 =====================================
 S Y M M E T R Y ,   E L E C T R O N S
 =====================================
  
 Symmetry: NOSYM

 Irreducible Representations, including subspecies
 -------------------------------------------------
 A

 Symmetry is NOT used when fitting density


 Configuration of Valence Electrons
 ==================================
 ( determined in the SCF procedure )

 Total:   70

 Net Charge: 0 (Nuclei minus Electrons)

 Aufbau principle for MO occupations will be applied through SCF cycle no.     150
 Thereafter, the program will assign electrons to MOs that are spatially
 similar to the occupied MOs in a "reference" cycle ("KeepOrbitals").
 The reference cycle is always the PREVIOUS cycle: it will evolve with
 the SCF procedure.
1
 ***************************************************************************************************



                                      ****************************************
                                      *  B U I L D : (Fragments, Functions)  *
                                      ****************************************
  



 =======
 S F O s  ***  (Symmetrized Fragment Orbitals)  ***
 =======
  
 SFOs are linear combinations of (valence) Fragment Orbitals (FOs), such that the SFOs transform as the
 irreducible representations of the (molecular) symmetry group. Each SFO is therefore characterized by
 an irrep of the molecule and by a few (or only one) generating FOs.
 The SFOs constitute a symmetry-adapted basis for the Fock matrix. The MO eigenvector coefficients in
 this basis provide a direct interpretation of the MOs in terms of Frontier Orbital Theory.

 The SFOs are combined with auxiliary Core Functions (CFs) to ensure orthogonalization on the (frozen)
 Core Orbitals (COs). The Core-orthogonalized SFOs (CSFOs) constitute the true Fock basis.

 The FOs, and hence also the (C)SFOs are combinations of the elementary basis functions (BAS). The basis
 functions that participate in the description of the SFOs depend on the irrep. The indices of the
 involved functions are printed below for each irrep.
 (The complete list of primitive basis functions is printed in another section)

 Total nr. of (C)SFOs (summation over all irreps) :   243

 NOTE: a (C)SFO that is defined as a combination of more than one FO is usually NOT normalized.



                                       === A ===
 Nr. of SFOs :  243
 Cartesian basis functions that participate in this irrep (total number =   252) :
      1     2     3     4     5     6     9    12     7    10
     13     8    11    14    15    16    17    18    19    20
     21    22    23    24    25    26    29    32    27    30
     33    28    31    34    35    36    37    38    39    40
     41    42    43    44    45    46    49    52    47    50
     53    48    51    54    55    56    57    58    59    60
     61    62    63    64    65    66    69    72    67    70
     73    68    71    74    75    76    77    78    79    80
     81    82    83    84    85    86    89    92    87    90
     93    88    91    94    95    96    97    98    99   100
    101   102   103   104   105   106   109   112   107   110
    113   108   111   114   115   116   117   118   119   120
    121   122   123   124   125   126   129   132   127   130
    133   128   131   134   135   136   137   138   139   140
    141   142   143   144   145   146   149   152   147   150
    153   148   151   154   155   156   157   158   159   160
    161   162   163   164   165   166   169   172   167   170
    173   168   171   174   175   176   177   178   179   180
    181   182   183   184   185   186   187   188   189   190
    191   192   193   194   195   196   197   198   199   200
    201   202   203   204   205   206   207   208   209   210
    211   212   213   214   215   216   217   218   219   220
    221   222   223   224   225   226   227   228   229   230
    231   232   233   234   235   236   237   238   239   240
    241   242   243   244   245   246   247   248   249   250
    251   252

    SFO  (index         Fragment          Generating    Expansion in Fragment Orbitals
  indx  incl.CFs)   Occup   Orb.Energy   FragmentType  Coeff.   Orbital     on Fragment
 --------------------------------------------------------------------------------------
     1       1      2.000     -14.485 au  N             1.00      1 S               1
                        (    -394.151 eV)
     2       2      2.000      -0.757 au  N             1.00      2 S               1
                        (     -20.602 eV)
     3       3       --         0.554 au  N             1.00      3 S               1
                        (      15.062 eV)
     4       4       --         6.997 au  N             1.00      4 S               1
                        (     190.405 eV)
     5       5       --        64.402 au  N             1.00      5 S               1
                        (    1752.461 eV)
     6       6      1.000      -0.270 au  N             1.00      1 P:x             1
                        (      -7.335 eV)
     7       7       --         0.311 au  N             1.00      2 P:x             1
                        (       8.457 eV)
     8       8       --         3.375 au  N             1.00      3 P:x             1
                        (      91.843 eV)
     9       9      1.000      -0.270 au  N             1.00      1 P:y             1
                        (      -7.335 eV)
    10      10       --         0.311 au  N             1.00      2 P:y             1
                        (       8.457 eV)
    11      11       --         3.375 au  N             1.00      3 P:y             1
                        (      91.843 eV)
    12      12      1.000      -0.270 au  N             1.00      1 P:z             1
                        (      -7.335 eV)
    13      13       --         0.311 au  N             1.00      2 P:z             1
                        (       8.457 eV)
    14      14       --         3.375 au  N             1.00      3 P:z             1
                        (      91.843 eV)
    15      15       --         1.299 au  N             1.00      1 D:z2            1
                        (      35.360 eV)
    16      16       --         1.299 au  N             1.00      1 D:x2-y2         1
                        (      35.360 eV)
    17      17       --         1.299 au  N             1.00      1 D:xy            1
                        (      35.360 eV)
    18      18       --         1.299 au  N             1.00      1 D:xz            1
                        (      35.360 eV)
    19      19       --         1.299 au  N             1.00      1 D:yz            1
                        (      35.360 eV)
    20      20      2.000     -14.485 au  N             1.00      1 S               2
                        (    -394.151 eV)
    21      21      2.000      -0.757 au  N             1.00      2 S               2
                        (     -20.602 eV)
    22      22       --         0.554 au  N             1.00      3 S               2
                        (      15.062 eV)
    23      23       --         6.997 au  N             1.00      4 S               2
                        (     190.405 eV)
    24      24       --        64.402 au  N             1.00      5 S               2
                        (    1752.461 eV)
    25      25      1.000      -0.270 au  N             1.00      1 P:x             2
                        (      -7.335 eV)
    26      26       --         0.311 au  N             1.00      2 P:x             2
                        (       8.457 eV)
    27      27       --         3.375 au  N             1.00      3 P:x             2
                        (      91.843 eV)
    28      28      1.000      -0.270 au  N             1.00      1 P:y             2
                        (      -7.335 eV)
    29      29       --         0.311 au  N             1.00      2 P:y             2
                        (       8.457 eV)
    30      30       --         3.375 au  N             1.00      3 P:y             2
                        (      91.843 eV)
    31      31      1.000      -0.270 au  N             1.00      1 P:z             2
                        (      -7.335 eV)
    32      32       --         0.311 au  N             1.00      2 P:z             2
                        (       8.457 eV)
    33      33       --         3.375 au  N             1.00      3 P:z             2
                        (      91.843 eV)
    34      34       --         1.299 au  N             1.00      1 D:z2            2
                        (      35.360 eV)
    35      35       --         1.299 au  N             1.00      1 D:x2-y2         2
                        (      35.360 eV)
    36      36       --         1.299 au  N             1.00      1 D:xy            2
                        (      35.360 eV)
    37      37       --         1.299 au  N             1.00      1 D:xz            2
                        (      35.360 eV)
    38      38       --         1.299 au  N             1.00      1 D:yz            2
                        (      35.360 eV)
    39      39      2.000     -14.485 au  N             1.00      1 S               3
                        (    -394.151 eV)
    40      40      2.000      -0.757 au  N             1.00      2 S               3
                        (     -20.602 eV)
    41      41       --         0.554 au  N             1.00      3 S               3
                        (      15.062 eV)
    42      42       --         6.997 au  N             1.00      4 S               3
                        (     190.405 eV)
    43      43       --        64.402 au  N             1.00      5 S               3
                        (    1752.461 eV)
    44      44      1.000      -0.270 au  N             1.00      1 P:x             3
                        (      -7.335 eV)
    45      45       --         0.311 au  N             1.00      2 P:x             3
                        (       8.457 eV)
    46      46       --         3.375 au  N             1.00      3 P:x             3
                        (      91.843 eV)
    47      47      1.000      -0.270 au  N             1.00      1 P:y             3
                        (      -7.335 eV)
    48      48       --         0.311 au  N             1.00      2 P:y             3
                        (       8.457 eV)
    49      49       --         3.375 au  N             1.00      3 P:y             3
                        (      91.843 eV)
    50      50      1.000      -0.270 au  N             1.00      1 P:z             3
                        (      -7.335 eV)
    51      51       --         0.311 au  N             1.00      2 P:z             3
                        (       8.457 eV)
    52      52       --         3.375 au  N             1.00      3 P:z             3
                        (      91.843 eV)
    53      53       --         1.299 au  N             1.00      1 D:z2            3
                        (      35.360 eV)
    54      54       --         1.299 au  N             1.00      1 D:x2-y2         3
                        (      35.360 eV)
    55      55       --         1.299 au  N             1.00      1 D:xy            3
                        (      35.360 eV)
    56      56       --         1.299 au  N             1.00      1 D:xz            3
                        (      35.360 eV)
    57      57       --         1.299 au  N             1.00      1 D:yz            3
                        (      35.360 eV)
    58      58      2.000     -14.485 au  N             1.00      1 S               4
                        (    -394.151 eV)
    59      59      2.000      -0.757 au  N             1.00      2 S               4
                        (     -20.602 eV)
    60      60       --         0.554 au  N             1.00      3 S               4
                        (      15.062 eV)
    61      61       --         6.997 au  N             1.00      4 S               4
                        (     190.405 eV)
    62      62       --        64.402 au  N             1.00      5 S               4
                        (    1752.461 eV)
    63      63      1.000      -0.270 au  N             1.00      1 P:x             4
                        (      -7.335 eV)
    64      64       --         0.311 au  N             1.00      2 P:x             4
                        (       8.457 eV)
    65      65       --         3.375 au  N             1.00      3 P:x             4
                        (      91.843 eV)
    66      66      1.000      -0.270 au  N             1.00      1 P:y             4
                        (      -7.335 eV)
    67      67       --         0.311 au  N             1.00      2 P:y             4
                        (       8.457 eV)
    68      68       --         3.375 au  N             1.00      3 P:y             4
                        (      91.843 eV)
    69      69      1.000      -0.270 au  N             1.00      1 P:z             4
                        (      -7.335 eV)
    70      70       --         0.311 au  N             1.00      2 P:z             4
                        (       8.457 eV)
    71      71       --         3.375 au  N             1.00      3 P:z             4
                        (      91.843 eV)
    72      72       --         1.299 au  N             1.00      1 D:z2            4
                        (      35.360 eV)
    73      73       --         1.299 au  N             1.00      1 D:x2-y2         4
                        (      35.360 eV)
    74      74       --         1.299 au  N             1.00      1 D:xy            4
                        (      35.360 eV)
    75      75       --         1.299 au  N             1.00      1 D:xz            4
                        (      35.360 eV)
    76      76       --         1.299 au  N             1.00      1 D:yz            4
                        (      35.360 eV)
    77      77      2.000     -10.347 au  C             1.00      1 S               5
                        (    -281.544 eV)
    78      78      2.000      -0.564 au  C             1.00      2 S               5
                        (     -15.345 eV)
    79      79       --         0.402 au  C             1.00      3 S               5
                        (      10.943 eV)
    80      80       --         5.509 au  C             1.00      4 S               5
                        (     149.900 eV)
    81      81       --        50.546 au  C             1.00      5 S               5
                        (    1375.414 eV)
    82      82      0.667      -0.188 au  C             1.00      1 P:x             5
                        (      -5.110 eV)
    83      83       --         0.191 au  C             1.00      2 P:x             5
                        (       5.204 eV)
    84      84       --         2.089 au  C             1.00      3 P:x             5
                        (      56.851 eV)
    85      85      0.667      -0.188 au  C             1.00      1 P:y             5
                        (      -5.110 eV)
    86      86       --         0.191 au  C             1.00      2 P:y             5
                        (       5.204 eV)
    87      87       --         2.089 au  C             1.00      3 P:y             5
                        (      56.851 eV)
    88      88      0.667      -0.188 au  C             1.00      1 P:z             5
                        (      -5.110 eV)
    89      89       --         0.191 au  C             1.00      2 P:z             5
                        (       5.204 eV)
    90      90       --         2.089 au  C             1.00      3 P:z             5
                        (      56.851 eV)
    91      91       --         1.292 au  C             1.00      1 D:z2            5
                        (      35.150 eV)
    92      92       --         1.292 au  C             1.00      1 D:x2-y2         5
                        (      35.150 eV)
    93      93       --         1.292 au  C             1.00      1 D:xy            5
                        (      35.150 eV)
    94      94       --         1.292 au  C             1.00      1 D:xz            5
                        (      35.150 eV)
    95      95       --         1.292 au  C             1.00      1 D:yz            5
                        (      35.150 eV)
    96      96      2.000     -10.347 au  C             1.00      1 S               6
                        (    -281.544 eV)
    97      97      2.000      -0.564 au  C             1.00      2 S               6
                        (     -15.345 eV)
    98      98       --         0.402 au  C             1.00      3 S               6
                        (      10.943 eV)
    99      99       --         5.509 au  C             1.00      4 S               6
                        (     149.900 eV)
   100     100       --        50.546 au  C             1.00      5 S               6
                        (    1375.414 eV)
   101     101      0.667      -0.188 au  C             1.00      1 P:x             6
                        (      -5.110 eV)
   102     102       --         0.191 au  C             1.00      2 P:x             6
                        (       5.204 eV)
   103     103       --         2.089 au  C             1.00      3 P:x             6
                        (      56.851 eV)
   104     104      0.667      -0.188 au  C             1.00      1 P:y             6
                        (      -5.110 eV)
   105     105       --         0.191 au  C             1.00      2 P:y             6
                        (       5.204 eV)
   106     106       --         2.089 au  C             1.00      3 P:y             6
                        (      56.851 eV)
   107     107      0.667      -0.188 au  C             1.00      1 P:z             6
                        (      -5.110 eV)
   108     108       --         0.191 au  C             1.00      2 P:z             6
                        (       5.204 eV)
   109     109       --         2.089 au  C             1.00      3 P:z             6
                        (      56.851 eV)
   110     110       --         1.292 au  C             1.00      1 D:z2            6
                        (      35.150 eV)
   111     111       --         1.292 au  C             1.00      1 D:x2-y2         6
                        (      35.150 eV)
   112     112       --         1.292 au  C             1.00      1 D:xy            6
                        (      35.150 eV)
   113     113       --         1.292 au  C             1.00      1 D:xz            6
                        (      35.150 eV)
   114     114       --         1.292 au  C             1.00      1 D:yz            6
                        (      35.150 eV)
   115     115      2.000     -10.347 au  C             1.00      1 S               7
                        (    -281.544 eV)
   116     116      2.000      -0.564 au  C             1.00      2 S               7
                        (     -15.345 eV)
   117     117       --         0.402 au  C             1.00      3 S               7
                        (      10.943 eV)
   118     118       --         5.509 au  C             1.00      4 S               7
                        (     149.900 eV)
   119     119       --        50.546 au  C             1.00      5 S               7
                        (    1375.414 eV)
   120     120      0.667      -0.188 au  C             1.00      1 P:x             7
                        (      -5.110 eV)
   121     121       --         0.191 au  C             1.00      2 P:x             7
                        (       5.204 eV)
   122     122       --         2.089 au  C             1.00      3 P:x             7
                        (      56.851 eV)
   123     123      0.667      -0.188 au  C             1.00      1 P:y             7
                        (      -5.110 eV)
   124     124       --         0.191 au  C             1.00      2 P:y             7
                        (       5.204 eV)
   125     125       --         2.089 au  C             1.00      3 P:y             7
                        (      56.851 eV)
   126     126      0.667      -0.188 au  C             1.00      1 P:z             7
                        (      -5.110 eV)
   127     127       --         0.191 au  C             1.00      2 P:z             7
                        (       5.204 eV)
   128     128       --         2.089 au  C             1.00      3 P:z             7
                        (      56.851 eV)
   129     129       --         1.292 au  C             1.00      1 D:z2            7
                        (      35.150 eV)
   130     130       --         1.292 au  C             1.00      1 D:x2-y2         7
                        (      35.150 eV)
   131     131       --         1.292 au  C             1.00      1 D:xy            7
                        (      35.150 eV)
   132     132       --         1.292 au  C             1.00      1 D:xz            7
                        (      35.150 eV)
   133     133       --         1.292 au  C             1.00      1 D:yz            7
                        (      35.150 eV)
   134     134      2.000     -10.347 au  C             1.00      1 S               8
                        (    -281.544 eV)
   135     135      2.000      -0.564 au  C             1.00      2 S               8
                        (     -15.345 eV)
   136     136       --         0.402 au  C             1.00      3 S               8
                        (      10.943 eV)
   137     137       --         5.509 au  C             1.00      4 S               8
                        (     149.900 eV)
   138     138       --        50.546 au  C             1.00      5 S               8
                        (    1375.414 eV)
   139     139      0.667      -0.188 au  C             1.00      1 P:x             8
                        (      -5.110 eV)
   140     140       --         0.191 au  C             1.00      2 P:x             8
                        (       5.204 eV)
   141     141       --         2.089 au  C             1.00      3 P:x             8
                        (      56.851 eV)
   142     142      0.667      -0.188 au  C             1.00      1 P:y             8
                        (      -5.110 eV)
   143     143       --         0.191 au  C             1.00      2 P:y             8
                        (       5.204 eV)
   144     144       --         2.089 au  C             1.00      3 P:y             8
                        (      56.851 eV)
   145     145      0.667      -0.188 au  C             1.00      1 P:z             8
                        (      -5.110 eV)
   146     146       --         0.191 au  C             1.00      2 P:z             8
                        (       5.204 eV)
   147     147       --         2.089 au  C             1.00      3 P:z             8
                        (      56.851 eV)
   148     148       --         1.292 au  C             1.00      1 D:z2            8
                        (      35.150 eV)
   149     149       --         1.292 au  C             1.00      1 D:x2-y2         8
                        (      35.150 eV)
   150     150       --         1.292 au  C             1.00      1 D:xy            8
                        (      35.150 eV)
   151     151       --         1.292 au  C             1.00      1 D:xz            8
                        (      35.150 eV)
   152     152       --         1.292 au  C             1.00      1 D:yz            8
                        (      35.150 eV)
   153     153      2.000     -10.347 au  C             1.00      1 S               9
                        (    -281.544 eV)
   154     154      2.000      -0.564 au  C             1.00      2 S               9
                        (     -15.345 eV)
   155     155       --         0.402 au  C             1.00      3 S               9
                        (      10.943 eV)
   156     156       --         5.509 au  C             1.00      4 S               9
                        (     149.900 eV)
   157     157       --        50.546 au  C             1.00      5 S               9
                        (    1375.414 eV)
   158     158      0.667      -0.188 au  C             1.00      1 P:x             9
                        (      -5.110 eV)
   159     159       --         0.191 au  C             1.00      2 P:x             9
                        (       5.204 eV)
   160     160       --         2.089 au  C             1.00      3 P:x             9
                        (      56.851 eV)
   161     161      0.667      -0.188 au  C             1.00      1 P:y             9
                        (      -5.110 eV)
   162     162       --         0.191 au  C             1.00      2 P:y             9
                        (       5.204 eV)
   163     163       --         2.089 au  C             1.00      3 P:y             9
                        (      56.851 eV)
   164     164      0.667      -0.188 au  C             1.00      1 P:z             9
                        (      -5.110 eV)
   165     165       --         0.191 au  C             1.00      2 P:z             9
                        (       5.204 eV)
   166     166       --         2.089 au  C             1.00      3 P:z             9
                        (      56.851 eV)
   167     167       --         1.292 au  C             1.00      1 D:z2            9
                        (      35.150 eV)
   168     168       --         1.292 au  C             1.00      1 D:x2-y2         9
                        (      35.150 eV)
   169     169       --         1.292 au  C             1.00      1 D:xy            9
                        (      35.150 eV)
   170     170       --         1.292 au  C             1.00      1 D:xz            9
                        (      35.150 eV)
   171     171       --         1.292 au  C             1.00      1 D:yz            9
                        (      35.150 eV)
   172     172      1.000      -0.244 au  H             1.00      1 S              10
                        (      -6.641 eV)
   173     173       --         0.104 au  H             1.00      2 S              10
                        (       2.836 eV)
   174     174       --         1.564 au  H             1.00      3 S              10
                        (      42.568 eV)
   175     175       --         0.436 au  H             1.00      1 P:x            10
                        (      11.865 eV)
   176     176       --         0.436 au  H             1.00      1 P:y            10
                        (      11.865 eV)
   177     177       --         0.436 au  H             1.00      1 P:z            10
                        (      11.865 eV)
   178     178      1.000      -0.244 au  H             1.00      1 S              11
                        (      -6.641 eV)
   179     179       --         0.104 au  H             1.00      2 S              11
                        (       2.836 eV)
   180     180       --         1.564 au  H             1.00      3 S              11
                        (      42.568 eV)
   181     181       --         0.436 au  H             1.00      1 P:x            11
                        (      11.865 eV)
   182     182       --         0.436 au  H             1.00      1 P:y            11
                        (      11.865 eV)
   183     183       --         0.436 au  H             1.00      1 P:z            11
                        (      11.865 eV)
   184     184      1.000      -0.244 au  H             1.00      1 S              12
                        (      -6.641 eV)
   185     185       --         0.104 au  H             1.00      2 S              12
                        (       2.836 eV)
   186     186       --         1.564 au  H             1.00      3 S              12
                        (      42.568 eV)
   187     187       --         0.436 au  H             1.00      1 P:x            12
                        (      11.865 eV)
   188     188       --         0.436 au  H             1.00      1 P:y            12
                        (      11.865 eV)
   189     189       --         0.436 au  H             1.00      1 P:z            12
                        (      11.865 eV)
   190     190      1.000      -0.244 au  H             1.00      1 S              13
                        (      -6.641 eV)
   191     191       --         0.104 au  H             1.00      2 S              13
                        (       2.836 eV)
   192     192       --         1.564 au  H             1.00      3 S              13
                        (      42.568 eV)
   193     193       --         0.436 au  H             1.00      1 P:x            13
                        (      11.865 eV)
   194     194       --         0.436 au  H             1.00      1 P:y            13
                        (      11.865 eV)
   195     195       --         0.436 au  H             1.00      1 P:z            13
                        (      11.865 eV)
   196     196      1.000      -0.244 au  H             1.00      1 S              14
                        (      -6.641 eV)
   197     197       --         0.104 au  H             1.00      2 S              14
                        (       2.836 eV)
   198     198       --         1.564 au  H             1.00      3 S              14
                        (      42.568 eV)
   199     199       --         0.436 au  H             1.00      1 P:x            14
                        (      11.865 eV)
   200     200       --         0.436 au  H             1.00      1 P:y            14
                        (      11.865 eV)
   201     201       --         0.436 au  H             1.00      1 P:z            14
                        (      11.865 eV)
   202     202      1.000      -0.244 au  H             1.00      1 S              15
                        (      -6.641 eV)
   203     203       --         0.104 au  H             1.00      2 S              15
                        (       2.836 eV)
   204     204       --         1.564 au  H             1.00      3 S              15
                        (      42.568 eV)
   205     205       --         0.436 au  H             1.00      1 P:x            15
                        (      11.865 eV)
   206     206       --         0.436 au  H             1.00      1 P:y            15
                        (      11.865 eV)
   207     207       --         0.436 au  H             1.00      1 P:z            15
                        (      11.865 eV)
   208     208      1.000      -0.244 au  H             1.00      1 S              16
                        (      -6.641 eV)
   209     209       --         0.104 au  H             1.00      2 S              16
                        (       2.836 eV)
   210     210       --         1.564 au  H             1.00      3 S              16
                        (      42.568 eV)
   211     211       --         0.436 au  H             1.00      1 P:x            16
                        (      11.865 eV)
   212     212       --         0.436 au  H             1.00      1 P:y            16
                        (      11.865 eV)
   213     213       --         0.436 au  H             1.00      1 P:z            16
                        (      11.865 eV)
   214     214      1.000      -0.244 au  H             1.00      1 S              17
                        (      -6.641 eV)
   215     215       --         0.104 au  H             1.00      2 S              17
                        (       2.836 eV)
   216     216       --         1.564 au  H             1.00      3 S              17
                        (      42.568 eV)
   217     217       --         0.436 au  H             1.00      1 P:x            17
                        (      11.865 eV)
   218     218       --         0.436 au  H             1.00      1 P:y            17
                        (      11.865 eV)
   219     219       --         0.436 au  H             1.00      1 P:z            17
                        (      11.865 eV)
   220     220      1.000      -0.244 au  H             1.00      1 S              18
                        (      -6.641 eV)
   221     221       --         0.104 au  H             1.00      2 S              18
                        (       2.836 eV)
   222     222       --         1.564 au  H             1.00      3 S              18
                        (      42.568 eV)
   223     223       --         0.436 au  H             1.00      1 P:x            18
                        (      11.865 eV)
   224     224       --         0.436 au  H             1.00      1 P:y            18
                        (      11.865 eV)
   225     225       --         0.436 au  H             1.00      1 P:z            18
                        (      11.865 eV)
   226     226      1.000      -0.244 au  H             1.00      1 S              19
                        (      -6.641 eV)
   227     227       --         0.104 au  H             1.00      2 S              19
                        (       2.836 eV)
   228     228       --         1.564 au  H             1.00      3 S              19
                        (      42.568 eV)
   229     229       --         0.436 au  H             1.00      1 P:x            19
                        (      11.865 eV)
   230     230       --         0.436 au  H             1.00      1 P:y            19
                        (      11.865 eV)
   231     231       --         0.436 au  H             1.00      1 P:z            19
                        (      11.865 eV)
   232     232      1.000      -0.244 au  H             1.00      1 S              20
                        (      -6.641 eV)
   233     233       --         0.104 au  H             1.00      2 S              20
                        (       2.836 eV)
   234     234       --         1.564 au  H             1.00      3 S              20
                        (      42.568 eV)
   235     235       --         0.436 au  H             1.00      1 P:x            20
                        (      11.865 eV)
   236     236       --         0.436 au  H             1.00      1 P:y            20
                        (      11.865 eV)
   237     237       --         0.436 au  H             1.00      1 P:z            20
                        (      11.865 eV)
   238     238      1.000      -0.244 au  H             1.00      1 S              21
                        (      -6.641 eV)
   239     239       --         0.104 au  H             1.00      2 S              21
                        (       2.836 eV)
   240     240       --         1.564 au  H             1.00      3 S              21
                        (      42.568 eV)
   241     241       --         0.436 au  H             1.00      1 P:x            21
                        (      11.865 eV)
   242     242       --         0.436 au  H             1.00      1 P:y            21
                        (      11.865 eV)
   243     243       --         0.436 au  H             1.00      1 P:z            21
                        (      11.865 eV)



 ================================
 (Slater-type)  F U N C T I O N S  ***  (Basis and Fit)  ***
 ================================
  

 Atom Type    1  (N)
 ==============

 Valence Basis Sets:   9
 -----------------------
   1 S    8.740000
   1 S    5.900000
   2 S    5.150000
   2 S    2.500000
   2 S    1.500000
   2 P    3.680000
   2 P    1.880000
   2 P    1.000000
   3 D    2.200000

 Charge Fitting Sets (for the computation of the Coulomb Potential):  22
 -----------------------------------------------------------------------
   1 S   17.480000
   2 S   20.150000
   2 S   13.990000
   2 S    9.710000
   2 S    6.740000
   3 S    6.860000
   3 S    5.040000
   3 S    3.700000
   3 S    2.720000
   3 S    2.000000
   2 P   11.320000
   2 P    6.730000
   3 P    5.920000
   3 P    3.820000
   3 P    2.460000
   3 D    8.100000
   3 D    5.080000
   3 D    3.190000
   3 D    2.000000
   4 F    5.800000
   4 F    3.600000
   5 G    4.500000

 Atom Type    2  (C)
 ==============

 Valence Basis Sets:   9
 -----------------------
   1 S    7.680000
   1 S    5.000000
   2 S    1.280000
   2 S    2.100000
   2 S    4.600000
   2 P    0.820000
   2 P    1.480000
   2 P    2.940000
   3 D    2.200000

 Charge Fitting Sets (for the computation of the Coulomb Potential):  22
 -----------------------------------------------------------------------
   1 S   15.360000
   2 S   17.530000
   2 S   12.070000
   2 S    8.310000
   2 S    5.730000
   3 S    5.780000
   3 S    4.220000
   3 S    3.080000
   3 S    2.250000
   3 S    1.640000
   2 P    9.880000
   2 P    5.800000
   3 P    5.050000
   3 P    3.230000
   3 P    2.060000
   3 D    7.200000
   3 D    4.400000
   3 D    2.690000
   3 D    1.640000
   4 F    5.400000
   4 F    3.550000
   5 G    4.500000

 Atom Type    3  (H)
 ==============

 Valence Basis Sets:   4
 -----------------------
   1 S    0.690000
   1 S    0.920000
   1 S    1.580000
   2 P    1.250000

 Charge Fitting Sets (for the computation of the Coulomb Potential):  11
 -----------------------------------------------------------------------
   1 S    3.160000
   1 S    2.090000
   1 S    1.380000
   2 S    1.500000
   2 P    4.000000
   2 P    2.650000
   2 P    1.750000
   3 D    4.000000
   3 D    2.500000
   4 F    3.000000
   5 G    4.000000


 BAS: List of all Elementary Cartesian Basis Functions
 =====================================================

 The numbering in the list below (to the right of the function characteristics) is referred
 to in print-outs of MO eigenvectors and Mulliken populations in the BAS representation
 (as contrasted to the SFO representation).

 Notes:
 1. The functions are characterized by a polynomial prefactor (powers of x,y,z and r) and
    an exponential decay factor alpha.
 2. Since the basis sets are specific for an atom TYPE, the individual functions occur on
    all atoms of that type.
 3. The word 'Core' in the left margin signals that it is a Core Function (CF) : not a
    degree of freedom in the valence set, but only used to ensure orthogonalization of
    the other valence basis functions on the frozen Core Orbitals.


 (power of) X  Y  Z  R     Alpha  on Atom
            ==========     =====     ==========

 N                                    1    2    3    4
                                  ---------------------------------------------------------------------------
            0  0  0  0     8.740      1   21   41   61
            0  0  0  0     5.900      2   22   42   62
            0  0  0  1     5.150      3   23   43   63
            0  0  0  1     2.500      4   24   44   64
            0  0  0  1     1.500      5   25   45   65
            1  0  0  0     3.680      6   26   46   66
            0  1  0  0     3.680      7   27   47   67
            0  0  1  0     3.680      8   28   48   68
            1  0  0  0     1.880      9   29   49   69
            0  1  0  0     1.880     10   30   50   70
            0  0  1  0     1.880     11   31   51   71
            1  0  0  0     1.000     12   32   52   72
            0  1  0  0     1.000     13   33   53   73
            0  0  1  0     1.000     14   34   54   74
            2  0  0  0     2.200     15   35   55   75
            1  1  0  0     2.200     16   36   56   76
            1  0  1  0     2.200     17   37   57   77
            0  2  0  0     2.200     18   38   58   78
            0  1  1  0     2.200     19   39   59   79
            0  0  2  0     2.200     20   40   60   80

 C                                    5    6    7    8    9
                                  ---------------------------------------------------------------------------
            0  0  0  0     7.680     81  101  121  141  161
            0  0  0  0     5.000     82  102  122  142  162
            0  0  0  1     1.280     83  103  123  143  163
            0  0  0  1     2.100     84  104  124  144  164
            0  0  0  1     4.600     85  105  125  145  165
            1  0  0  0     0.820     86  106  126  146  166
            0  1  0  0     0.820     87  107  127  147  167
            0  0  1  0     0.820     88  108  128  148  168
            1  0  0  0     1.480     89  109  129  149  169
            0  1  0  0     1.480     90  110  130  150  170
            0  0  1  0     1.480     91  111  131  151  171
            1  0  0  0     2.940     92  112  132  152  172
            0  1  0  0     2.940     93  113  133  153  173
            0  0  1  0     2.940     94  114  134  154  174
            2  0  0  0     2.200     95  115  135  155  175
            1  1  0  0     2.200     96  116  136  156  176
            1  0  1  0     2.200     97  117  137  157  177
            0  2  0  0     2.200     98  118  138  158  178
            0  1  1  0     2.200     99  119  139  159  179
            0  0  2  0     2.200    100  120  140  160  180

 H                                   10   11   12   13   14   15   16   17   18   19   20   21
                                  ---------------------------------------------------------------------------
            0  0  0  0     0.690    181  187  193  199  205  211  217  223  229  235  241  247
            0  0  0  0     0.920    182  188  194  200  206  212  218  224  230  236  242  248
            0  0  0  0     1.580    183  189  195  201  207  213  219  225  231  237  243  249
            1  0  0  0     1.250    184  190  196  202  208  214  220  226  232  238  244  250
            0  1  0  0     1.250    185  191  197  203  209  215  221  227  233  239  245  251
            0  0  1  0     1.250    186  192  198  204  210  216  222  228  234  240  246  252

 Total number of charge fitting functions (nprimf)      1356
 Total number of Cartesian basis functions (naos)        252
 Total number of Cartesian core functions  (ncos)          0

1
 ***************************************************************************************************



                                              ***********************
                                              *  T E C H N I C A L  *
                                              ***********************
  



 =============================================================
 P A R A L L E L I Z A T I O N  and  V E C T O R I Z A T I O N
 =============================================================
  
 Nr of parallel processes:                                4
 Maximum vector length in NumInt loops:                 128



 =====================
 S C F   U P D A T E S
 =====================
  
 Max. nr. of cycles:                               300
 Convergence criterion:                              0.0000010000
   secondary criterion:                              0.0010000000

 Mix parameter (when DIIS does not apply):           0.2000000000
 Mixed ADIIS+SDIIS will be used                  
    Max number of expansion vectors:                10
    Pure ADIIS when Max([F,P]) is above              0.1000000000
    Pure SDIIS when Max([F,P]) is below              0.0010000000
 Automatic ElectronSmearing (in case of problematic SCF convergence) disabled



 =================
 P R E C I S I O N  ***  (General: NumInt, NeglectFunctionTails, ...)  ***
 =================
  

 NumInt:           Target precision:                 4.0000000000
 -------           Initial precision:                4.0000000000
                   Min. precision (optimization):    4.0000000000

 Neglect Functions:          Basis functions:        0.1000000000E-05
 ------------------          Fit functions:          0.1000000000E-05



 ===========================
 L I N E A R   S C A L I N G
 ===========================
  

 Cut-off radii density fit:                        0.1000000000E-07
 Overlap cut-off criterion AO matrix elements:     0.1000000000E-05
 Cut-offs for Coulomb potential and fitted density:0.1000000000E-07
 Cut-off criterion for Coulomb multipole terms:    0.1000000000E-07
 Progressive Convergence parameter:                 0.000000000    
1
 ***************************************************************************************************



                                            ***************************
                                            *  C O M P U T A T I O N  *
                                            ***************************
  

 Number of elements of the density matrix on this node (used, total):      8246     31878



 ===========================================
 Numerical Integration : Fuzzy Cells (Becke)
 ===========================================
  
 Becke grid quality: NORMAL         
  
 Lebedev angular grid order:             min:  11 max:  23
 Nr. of radial points:                   min:  46 max:  52

 Total nr. of points:     131218
 Nr. of blocks:             1026
 Block length:               128
 Nr. of dummy points:        110


 Test of Precision of the Numerical Integration Grid
 ===================================================

 Integral of the Total Core Density:                   0.00000000000000



 ========================
 Density Fitting (zlmFit)
 ========================
  
 ZlmFit Fit Quality: NORMAL         
  
 Max L-expansion:                        min:   5 max:   6
 Nr. of radial interpolation points:     min:  36 max:  48



 ======================
 RI Hartree-Fock Scheme
 ======================
  
 Fit Set Quality     : NORMAL
 Threshold Quality   : NORMAL
 Integration Quality : NORMAL
 Fit Generation Method : AUTO
 Response Quality    : DEFAULT
 Is Range Separated  :  F
 
 RIHartreeFock Dependency: number of modified vectors:          17



 =====
 S C F  ***  ScaSCF  ***
 =====
  
 Initial density matrix is calculated as sum of fragments

 CYCLE    1
 SCF Error: norm([F,P])=      8.238691736581, max([F,P])=      1.257781426451
 orbitals (Q,E):
 ---------------
 A :26...45          ( 2.00    -0.5495)  ( 2.00    -0.5410)  ( 2.00    -0.5394)  ( 2.00    -0.5234)
                     ( 2.00    -0.5123)  ( 2.00    -0.5097)  ( 2.00    -0.4635)  ( 2.00    -0.4091)
                     ( 2.00    -0.3822)  ( 2.00    -0.3748)  ( 0.00    -0.0753)  ( 0.00    -0.0691)
                     ( 0.00    -0.0547)  ( 0.00    -0.0517)  ( 0.00    -0.0379)  ( 0.00    -0.0336)
                     ( 0.00    -0.0311)  ( 0.00    -0.0249)  ( 0.00    -0.0110)  ( 0.00     0.0007)

 CYCLE    2
   MIX coefficients:  0.8000  0.2000
 SCF Error: norm([F,P])=      1.084187767309, max([F,P])=      0.167648538140
 orbitals (Q,E):
 ---------------
 A :26...36          ( 2.00    -0.4895)  ( 2.00    -0.4807)  ( 2.00    -0.4777)  ( 2.00    -0.4708)
                     ( 2.00    -0.4602)  ( 2.00    -0.4574)  ( 2.00    -0.3956)  ( 2.00    -0.3416)
                     ( 2.00    -0.3113)  ( 2.00    -0.3015)  ( 0.00    -0.0452)

 CYCLE    3
  SDIIS (wt  0.000): -1.1148  2.1148
 A-DIIS (wt  1.000):  0.0000  1.0000
  DIIS coefficients:  0.0000  1.0000
 SCF Error: norm([F,P])=      0.608352389555, max([F,P])=      0.089969710132
 orbitals (Q,E):
 ---------------
 A :26...36          ( 2.00    -0.3161)  ( 2.00    -0.3125)  ( 2.00    -0.3096)  ( 2.00    -0.3060)
                     ( 2.00    -0.2907)  ( 2.00    -0.2766)  ( 2.00    -0.2065)  ( 2.00    -0.1604)
                     ( 2.00    -0.1172)  ( 2.00    -0.1005)  ( 0.00     0.0165)

 CYCLE    4
  SDIIS (wt  0.000):  0.4497 -0.0227  0.5730
 A-DIIS (wt  1.000):  0.0000  0.6209  0.3791
  DIIS coefficients:  0.0000  0.6209  0.3791
 SCF Error: norm([F,P])=      0.833675557457, max([F,P])=      0.138348643099
 orbitals (Q,E):
 ---------------
 A :26...36          ( 2.00    -0.3883)  ( 2.00    -0.3790)  ( 2.00    -0.3752)  ( 2.00    -0.3745)
                     ( 2.00    -0.3621)  ( 2.00    -0.3558)  ( 2.00    -0.2919)  ( 2.00    -0.2464)
                     ( 2.00    -0.2097)  ( 2.00    -0.1981)  ( 0.00     0.0036)

 CYCLE    5
  SDIIS (wt  0.927): -0.0791  0.2997  0.0840  0.6954
 A-DIIS (wt  0.073):  0.0000  0.0000  0.0000  1.0000
  DIIS coefficients: -0.0733  0.2777  0.0779  0.7178
 SCF Error: norm([F,P])=      0.091279230970, max([F,P])=      0.008272189796
 orbitals (Q,E):
 ---------------
 A :26...36          ( 2.00    -0.3947)  ( 2.00    -0.3852)  ( 2.00    -0.3826)  ( 2.00    -0.3817)
                     ( 2.00    -0.3683)  ( 2.00    -0.3632)  ( 2.00    -0.2969)  ( 2.00    -0.2494)
                     ( 2.00    -0.2160)  ( 2.00    -0.2024)  ( 0.00     0.0019)

 CYCLE    6
  SDIIS (wt  0.986):  0.0186  0.0030  0.0152  0.2035  0.7597
 A-DIIS (wt  0.014):  0.0000  0.0000  0.0000  0.0000  1.0000
  DIIS coefficients:  0.0184  0.0029  0.0149  0.2006  0.7632
 SCF Error: norm([F,P])=      0.021764980373, max([F,P])=      0.002432356310
 orbitals (Q,E):
 ---------------
 A :26...36          ( 2.00    -0.3944)  ( 2.00    -0.3851)  ( 2.00    -0.3821)  ( 2.00    -0.3813)
                     ( 2.00    -0.3685)  ( 2.00    -0.3629)  ( 2.00    -0.2977)  ( 2.00    -0.2511)
                     ( 2.00    -0.2160)  ( 2.00    -0.2039)  ( 0.00     0.0018)

 CYCLE    7
  SDIIS (wt  0.998): -0.0036  0.0053 -0.0050  0.0641  0.3841  0.5551
 A-DIIS (wt  0.002):  0.0000  0.0000  0.0000  0.0000  0.0994  0.9006
  DIIS coefficients: -0.0036  0.0053 -0.0049  0.0640  0.3836  0.5557
 SCF Error: norm([F,P])=      0.009660510387, max([F,P])=      0.001183800254
 orbitals (Q,E):
 ---------------
 A :26...36          ( 2.00    -0.3949)  ( 2.00    -0.3855)  ( 2.00    -0.3826)  ( 2.00    -0.3818)
                     ( 2.00    -0.3688)  ( 2.00    -0.3633)  ( 2.00    -0.2977)  ( 2.00    -0.2508)
                     ( 2.00    -0.2164)  ( 2.00    -0.2037)  ( 0.00     0.0019)

 CYCLE    8
  SDIIS (wt  1.000): -0.0001 -0.0010 -0.0020  0.0154  0.1240  0.2427  0.6210
  DIIS coefficients: -0.0001 -0.0010 -0.0020  0.0154  0.1240  0.2427  0.6210
 SCF Error: norm([F,P])=      0.001806600275, max([F,P])=      0.000219008598
 orbitals (Q,E):
 ---------------
 A :26...36          ( 2.00    -0.3948)  ( 2.00    -0.3855)  ( 2.00    -0.3825)  ( 2.00    -0.3817)
                     ( 2.00    -0.3688)  ( 2.00    -0.3633)  ( 2.00    -0.2977)  ( 2.00    -0.2508)
                     ( 2.00    -0.2163)  ( 2.00    -0.2037)  ( 0.00     0.0018)

 CYCLE    9
  SDIIS (wt  1.000):  0.0001 -0.0008 -0.0006  0.0015  0.0272  0.0794  0.3579  0.5352
  DIIS coefficients:  0.0001 -0.0008 -0.0006  0.0015  0.0272  0.0794  0.3579  0.5352
 SCF Error: norm([F,P])=      0.000786619177, max([F,P])=      0.000103662474
 orbitals (Q,E):
 ---------------
 A :26...36          ( 2.00    -0.3948)  ( 2.00    -0.3855)  ( 2.00    -0.3825)  ( 2.00    -0.3817)
                     ( 2.00    -0.3688)  ( 2.00    -0.3633)  ( 2.00    -0.2977)  ( 2.00    -0.2508)
                     ( 2.00    -0.2163)  ( 2.00    -0.2037)  ( 0.00     0.0018)

 CYCLE   10
  SDIIS (wt  1.000):  0.0000 -0.0002 -0.0001 -0.0005  0.0014  0.0110  0.0716  0.1799  0.7368
  DIIS coefficients:  0.0000 -0.0002 -0.0001 -0.0005  0.0014  0.0110  0.0716  0.1799  0.7368
 SCF Error: norm([F,P])=      0.000111732309, max([F,P])=      0.000012701404
 orbitals (Q,E):
 ---------------
 A :26...36          ( 2.00    -0.3948)  ( 2.00    -0.3855)  ( 2.00    -0.3825)  ( 2.00    -0.3817)
                     ( 2.00    -0.3688)  ( 2.00    -0.3633)  ( 2.00    -0.2977)  ( 2.00    -0.2508)
                     ( 2.00    -0.2163)  ( 2.00    -0.2037)  ( 0.00     0.0018)

 CYCLE   11
  SDIIS (wt  1.000): -0.0000 -0.0000 -0.0000 -0.0003 -0.0004  0.0018  0.0180  0.0597  0.3255  0.5957
  DIIS coefficients: -0.0000 -0.0000 -0.0000 -0.0003 -0.0004  0.0018  0.0180  0.0597  0.3255  0.5957
 SCF Error: norm([F,P])=      0.000032862441, max([F,P])=      0.000004721597
 orbitals (Q,E):
 ---------------
 A :26...36          ( 2.00    -0.3948)  ( 2.00    -0.3855)  ( 2.00    -0.3825)  ( 2.00    -0.3817)
                     ( 2.00    -0.3688)  ( 2.00    -0.3633)  ( 2.00    -0.2977)  ( 2.00    -0.2508)
                     ( 2.00    -0.2163)  ( 2.00    -0.2037)  ( 0.00     0.0018)

 CYCLE   12
  SDIIS (wt  1.000): -0.0000  0.0000 -0.0001 -0.0003 -0.0001  0.0021  0.0132  0.0986  0.3183  0.5683
  DIIS coefficients: -0.0000  0.0000 -0.0001 -0.0003 -0.0001  0.0021  0.0132  0.0986  0.3183  0.5683
 SCF Error: norm([F,P])=      0.000012771524, max([F,P])=      0.000002426911
 orbitals (Q,E):
 ---------------
 A :26...36          ( 2.00    -0.3948)  ( 2.00    -0.3855)  ( 2.00    -0.3825)  ( 2.00    -0.3817)
                     ( 2.00    -0.3688)  ( 2.00    -0.3633)  ( 2.00    -0.2977)  ( 2.00    -0.2508)
                     ( 2.00    -0.2163)  ( 2.00    -0.2037)  ( 0.00     0.0018)

 CYCLE   13
  SDIIS (wt  1.000):  0.0000 -0.0000 -0.0001 -0.0002 -0.0009 -0.0009  0.0052  0.0748  0.2789  0.6432
  DIIS coefficients:  0.0000 -0.0000 -0.0001 -0.0002 -0.0009 -0.0009  0.0052  0.0748  0.2789  0.6432
 SCF Error: norm([F,P])=      0.000003805562, max([F,P])=      0.000000722009
 orbitals (Q,E):
 ---------------
 A :26...36          ( 2.00    -0.3948)  ( 2.00    -0.3855)  ( 2.00    -0.3825)  ( 2.00    -0.3817)
                     ( 2.00    -0.3688)  ( 2.00    -0.3633)  ( 2.00    -0.2977)  ( 2.00    -0.2508)
                     ( 2.00    -0.2163)  ( 2.00    -0.2037)  ( 0.00     0.0018)

 SCF CONVERGED

 CYCLE   14
1
 ***************************************************************************************************



                                                *******************
                                                *  R E S U L T S  *
                                                *******************
  
  
 Hartree-Fock exchange energy:   -56.6381854251679     
 *** Using FIT density in Focky
  SDIIS (wt  1.000):  0.0000  0.0000 -0.0000 -0.0004 -0.0012 -0.0038  0.0146  0.0963  0.3117  0.5828
  DIIS coefficients:  0.0000  0.0000 -0.0000 -0.0004 -0.0012 -0.0038  0.0146  0.0963  0.3117  0.5828
 SCF Error: norm([F,P])=      0.000001060368, max([F,P])=      0.000000142424

 Orbital Energies, per Irrep and Spin:
 ======================================
                        Occup              E (au)              E (eV)       Diff (eV) with prev. cycle
                        -----      --------------------        ------       --------------------------
 A
              26        2.000     -0.39480826920791E+00       -10.743               1.17E-06
              27        2.000     -0.38547632688827E+00       -10.489               7.34E-07
              28        2.000     -0.38251120415919E+00       -10.409              -3.72E-07
              29        2.000     -0.38172994125094E+00       -10.387               1.82E-07
              30        2.000     -0.36876652621174E+00       -10.035               7.89E-07
              31        2.000     -0.36330214287590E+00        -9.886              -4.48E-07
              32        2.000     -0.29773075129573E+00        -8.102              -4.88E-07
              33        2.000     -0.25081518920984E+00        -6.825              -1.61E-07
              34        2.000     -0.21633756168586E+00        -5.887              -5.04E-08
              35        2.000     -0.20372628972843E+00        -5.544              -1.39E-06
              36        0.000      0.18423775174600E-02         0.050
              37        0.000      0.25269079772498E-01         0.688
              38        0.000      0.32155827167146E-01         0.875
              39        0.000      0.32436432609599E-01         0.883
              40        0.000      0.44049649772496E-01         1.199
              41        0.000      0.65003178489383E-01         1.769
              42        0.000      0.69503237965874E-01         1.891
              43        0.000      0.71702950450683E-01         1.951
              44        0.000      0.72546396045447E-01         1.974
              45        0.000      0.10224724214112E+00         2.782
  
 HOMO :       35 A                -0.20372628972843E+00
 LUMO :       36 A                 0.18423775174600E-02
  


 All Electron Calculation, thus no Orbital Energies of the Core Orbitals are calculated


 Fit test: (difference of exact and fit density, squared integrated, result summed over spins)
         Sum-of-Fragments:                             0.00000000041843
         Orthogonalized Fragments:                     0.00021569207096
         SCF:                                          0.00104758675430



 ==========================
 Electron Density at Nuclei
 ==========================
  
 The electron density is calculated at points on a small sphere around the center of a nucleus.
 The printed electron density is the average electron density on these points.
 The radius of the sphere is the printed approximate finite nuclear radius.

         Atom        Nuclear Radius (Angstrom)             Electron Density (a.u.)
         ----        -------------------------             -----------------------
     1)   N                 0.0000333706                              204.08093
     2)   N                 0.0000333706                              204.23003
     3)   N                 0.0000333706                              204.36094
     4)   N                 0.0000333706                              204.08138
     5)   C                 0.0000320678                              126.02367
     6)   H                 0.0000181514                                0.51853
     7)   C                 0.0000320678                              126.04295
     8)   C                 0.0000320678                              126.03423
     9)   C                 0.0000320678                              126.02485
    10)   C                 0.0000320678                              126.04438
    11)   H                 0.0000181514                                0.51726
    12)   H                 0.0000181514                                0.51632
    13)   H                 0.0000181514                                0.50498
    14)   H                 0.0000181514                                0.48710
    15)   H                 0.0000181514                                0.51557
    16)   H                 0.0000181514                                0.51861
    17)   H                 0.0000181514                                0.51797
    18)   H                 0.0000181514                                0.51523
    19)   H                 0.0000181514                                0.51626
    20)   H                 0.0000181514                                0.51719
    21)   H                 0.0000181514                                0.51535



 =======================================
 M U L L I K E N   P O P U L A T I O N S
 =======================================
  
 The survey below gives for each atom:
 a) the total charge (Z minus electrons)
 b) the net spin polarization (nr of electrons spin-A minus spin-B)
 c) for each spin the atomic electron valence density (integrated) per L-value.

 Atom              Charge    Spin density          S         P         D         F
 ----              ------    ------------       ------    ------    ------    ------
 1 N              -0.4063                       3.4911    3.8333    0.0818    0.0000
 2 N              -0.3394                       3.4662    3.8112    0.0620    0.0000
 3 N              -0.3776                       3.5364    3.7874    0.0537    0.0000
 4 N              -0.4063                       3.4912    3.8332    0.0819    0.0000
 5 C               0.6693                       2.8296    2.3999    0.1012    0.0000
 6 H              -0.1653                       1.0985    0.0668    0.0000    0.0000
 7 C               0.6507                       2.8328    2.4191    0.0974    0.0000
 8 C               0.6263                       2.8170    2.4552    0.1014    0.0000
 9 C               0.6690                       2.8291    2.4007    0.1012    0.0000
 10 C              0.6497                       2.8333    2.4197    0.0974    0.0000
 11 H             -0.1814                       1.1139    0.0675    0.0000    0.0000
 12 H             -0.1847                       1.1164    0.0683    0.0000    0.0000
 13 H              0.0170                       0.8809    0.1021    0.0000    0.0000
 14 H              0.0676                       0.8106    0.1218    0.0000    0.0000
 15 H             -0.1928                       1.1238    0.0690    0.0000    0.0000
 16 H             -0.1660                       1.0992    0.0668    0.0000    0.0000
 17 H             -0.1868                       1.1177    0.0691    0.0000    0.0000
 18 H             -0.1836                       1.1140    0.0696    0.0000    0.0000
 19 H             -0.1847                       1.1165    0.0683    0.0000    0.0000
 20 H             -0.1818                       1.1143    0.0675    0.0000    0.0000
 21 H             -0.1929                       1.1240    0.0689    0.0000    0.0000

 Populations of individual BAS functions
 ----------------------------------------
 1 N            0.5198  1.4754 -0.0467  0.9422  0.6004  0.1782  0.1680  0.1915  0.8176  0.8007
                0.8390  0.2666  0.2142  0.3575  0.0097  0.0222  0.0166  0.0133  0.0189  0.0011
 2 N            0.5193  1.4761 -0.0493  0.9710  0.5491  0.1745  0.1723  0.1853  0.8226  0.8275
                0.8443  0.2475  0.2205  0.3168  0.0069  0.0193  0.0139  0.0079  0.0130  0.0011
 3 N            0.5188  1.4765 -0.0479  0.9747  0.6143  0.1747  0.1789  0.1687  0.7945  0.8120
                0.7934  0.2997  0.2874  0.2781  0.0053  0.0149  0.0126  0.0046  0.0133  0.0031
 4 N            0.5198  1.4754 -0.0467  0.9421  0.6005  0.1849  0.1790  0.1738  0.8306  0.8201
                0.8064  0.3078  0.2734  0.2572  0.0057  0.0176  0.0201  0.0096  0.0193  0.0096
 5 C            0.4793  1.5290 -0.0629  0.9534 -0.0693 -0.1441 -0.1855 -0.1689  0.7874  0.7895
                0.8125  0.1697  0.1683  0.1709  0.0085  0.0215  0.0266  0.0110  0.0239  0.0097
 7 C            0.4793  1.5290 -0.0624  0.9563 -0.0695 -0.1939 -0.1420 -0.1329  0.7923  0.8127
                0.7756  0.1685  0.1740  0.1647  0.0094  0.0222  0.0234  0.0060  0.0280  0.0085
 8 C            0.4793  1.5287 -0.0731  0.9511 -0.0690 -0.1105 -0.1184 -0.2040  0.7755  0.8057
                0.7940  0.1691  0.1750  0.1687  0.0079  0.0288  0.0249  0.0067  0.0224  0.0107
 9 C            0.4793  1.5291 -0.0634  0.9534 -0.0693 -0.1983 -0.1286 -0.1708  0.7946  0.7469
                0.8477  0.1677  0.1622  0.1793  0.0086  0.0239  0.0265  0.0122  0.0233  0.0068
 10 C           0.4794  1.5289 -0.0621  0.9566 -0.0695 -0.1218 -0.1928 -0.1536  0.7695  0.7982
                0.8131  0.1639  0.1694  0.1738  0.0079  0.0213  0.0285  0.0103  0.0217  0.0077
 6 H            0.1646  0.6070  0.3268  0.0229  0.0219  0.0220
 11 H           0.2099  0.5755  0.3285  0.0219  0.0171  0.0285
 12 H           0.1732  0.6239  0.3193  0.0242  0.0215  0.0226
 13 H           0.0049  0.5258  0.3502  0.0320  0.0344  0.0357
 14 H          -0.0613  0.5365  0.3354  0.0423  0.0477  0.0318
 15 H           0.1906  0.6128  0.3205  0.0209  0.0244  0.0237
 16 H           0.1655  0.6070  0.3267  0.0181  0.0286  0.0201
 17 H           0.1869  0.6070  0.3238  0.0235  0.0248  0.0209
 18 H           0.1826  0.6089  0.3226  0.0230  0.0287  0.0179
 19 H           0.1732  0.6240  0.3193  0.0211  0.0184  0.0288
 20 H           0.2100  0.5761  0.3282  0.0185  0.0192  0.0298
 21 H           0.1906  0.6132  0.3201  0.0215  0.0179  0.0296

 Gross Charges per Atom (Z minus electrons)
 ==========================================
            -0.4063   -0.3394   -0.3776   -0.4063    0.6693   -0.1653    0.6507    0.6263    0.6690    0.6497
            -0.1814   -0.1847    0.0170    0.0676   -0.1928   -0.1660   -0.1868   -0.1836   -0.1847   -0.1818
            -0.1929
 Net Total:  0.00000000


 Atom-Atom Population Matrix (off-diagonal elements not doubled)
 ===============================================================

     1 :     6.8256
     2 :    -0.0547    6.6306
     3 :    -0.0535   -0.0328    6.6382
     4 :    -0.0645   -0.0546   -0.0533    6.8263
     5 :     0.3869    0.3569   -0.0154   -0.0177    4.0449
     6 :    -0.0068   -0.0045   -0.0744   -0.0540   -0.0018    0.9906
     7 :     0.3581   -0.0030    0.3851   -0.0175   -0.0341   -0.0109    4.0504
     8 :     0.3884   -0.0159   -0.0272    0.3885   -0.0304   -0.0065   -0.0407    4.0573
     9 :    -0.0177    0.3577   -0.0153    0.3864   -0.0345   -0.0039    0.0029   -0.0300    4.0441
    10 :    -0.0176   -0.0028    0.3849    0.3580    0.0028    0.3634   -0.0164   -0.0402   -0.0341    4.0507
    11 :    -0.0608   -0.0828   -0.0064   -0.0084    0.3685   -0.0014   -0.0057   -0.0054   -0.0192   -0.0017
             1.0621
    12 :    -0.0336   -0.0622   -0.0018   -0.0045    0.3777   -0.0000   -0.0092    0.0002   -0.0028   -0.0011
            -0.0478    0.9950
    13 :     0.0081    0.4535    0.0014    0.0082   -0.0229    0.0004    0.0001    0.0007   -0.0228    0.0000
            -0.0232   -0.0151    0.6329
    14 :    -0.0050    0.0160    0.4606   -0.0050   -0.0060    0.0068   -0.0265    0.0015   -0.0059   -0.0267
            -0.0029    0.0002   -0.0009    0.5702
    15 :    -0.0544   -0.0007   -0.0572   -0.0066   -0.0074   -0.0016    0.3742   -0.0057   -0.0018    0.0039
             0.0040    0.0003   -0.0001   -0.0241    1.0053
    16 :    -0.0540   -0.0045   -0.0745   -0.0067   -0.0040    0.0039    0.3630   -0.0068   -0.0018   -0.0108
            -0.0080    0.0032    0.0004    0.0068   -0.0236    0.9920
    17 :    -0.0621   -0.0072   -0.0053   -0.0622   -0.0084    0.0008   -0.0066    0.3779   -0.0081   -0.0068
            -0.0046    0.0009    0.0001    0.0008   -0.0057    0.0007    0.9828
    18 :    -0.0566   -0.0039   -0.0099   -0.0568   -0.0006   -0.0064   -0.0147    0.3786   -0.0006   -0.0142
             0.0013   -0.0037    0.0007   -0.0010   -0.0014   -0.0063    0.0095    0.9731
    19 :    -0.0045   -0.0623   -0.0019   -0.0338   -0.0028    0.0032   -0.0010    0.0002    0.3779   -0.0091
            -0.0052   -0.0051   -0.0151    0.0002   -0.0006   -0.0000    0.0010   -0.0037    0.9949
    20 :    -0.0085   -0.0828   -0.0064   -0.0610   -0.0194   -0.0080   -0.0017   -0.0051    0.3679   -0.0057
             0.0293   -0.0053   -0.0232   -0.0028   -0.0003   -0.0015   -0.0049    0.0014   -0.0478    1.0636
    21 :    -0.0065   -0.0007   -0.0571   -0.0545   -0.0018   -0.0236    0.0039   -0.0057   -0.0072    0.3734
            -0.0003   -0.0006   -0.0001   -0.0240   -0.0038   -0.0015   -0.0058   -0.0012    0.0002    0.0040
             1.0058



 =================================================
 H I R S H F E L D   C H A R G E   A N A L Y S I S
 =================================================
  
 For each fragment: the (numerical) integral of rho(scf) * rho(fragment)/rho(sum-of-fragments)
 (nuclear charges are included, electrons are counted negative)

 The fragments and their ordering are defined in the early G E O M E T R Y output section.
 If you use single-atom fragments, this usually implies that all atoms of the same
 chemical type are grouped together. This may not be the order in which you listed them
 in the input file!

    1  N                        -0.1323
[...]
                                    3.19%     2 S             -20.602  2.00     4 N
                                    3.00%     1 S              -6.641  1.00    14 H
                                   -2.96%     2 P:x             5.204  0.00     7 C
                                    2.62%     1 P:x            -5.110  0.67     6 C
                                   -2.43%     2 P:x             5.204  0.00     5 C
                                    2.34%     2 S               2.836  0.00    14 H
                                    2.07%     2 S               2.836  0.00    17 H
                                   -2.00%     2 P:x             5.204  0.00     8 C
                                    1.88%     1 P:y            -5.110  0.67     9 C
                                    1.66%     1 P:z            -5.110  0.67     8 C
                                   -1.49%     2 P:y             5.204  0.00     5 C
                                    1.42%     2 P:z             5.204  0.00     5 C
                                    1.36%     3 S              42.568  0.00    17 H
                                   -1.35%     2 P:y             5.204  0.00     8 C
                                   -1.29%     3 S              15.062  0.00     3 N
                                   -1.27%     2 S               2.836  0.00    13 H
                                    1.25%     3 S              42.568  0.00    18 H
                                    1.24%     1 S              -6.641  1.00    21 H
                                    1.20%     1 S              -6.641  1.00    15 H
                                    1.11%     1 P:z            -5.110  0.67     9 C
                                   -1.07%     2 S               2.836  0.00    10 H
                                   -1.06%     2 S               2.836  0.00    16 H
                                   -1.04%     2 S               2.836  0.00    19 H
                                   -1.04%     2 S               2.836  0.00    12 H
       4.632  0.00    51 A         31.52%     1 S              -6.641  1.00    14 H
                                   17.87%     2 S               2.836  0.00    14 H
                                  -14.46%     2 P:z             8.457  0.00     3 N
                                   11.96%     1 P:z            -7.335  1.00     3 N
                                   10.67%     1 P:x            -5.110  0.67     9 C
                                    9.63%     1 P:x            -5.110  0.67     6 C
                                    8.51%     1 S              -6.641  1.00    21 H
                                    8.38%     1 S              -6.641  1.00    15 H
                                    8.12%     1 P:y            -5.110  0.67     9 C
                                   -7.50%     2 S               2.836  0.00    21 H
                                   -7.37%     2 S               2.836  0.00    15 H
                                    6.83%     1 P:y            -5.110  0.67     6 C
                                    2.81%     1 S              -6.641  1.00    18 H
                                    2.56%     2 S               2.836  0.00    17 H
                                   -2.31%     2 P:z             8.457  0.00     2 N
                                   -2.18%     2 P:y             8.457  0.00     3 N
                                    2.06%     2 P:y             5.204  0.00     8 C
                                    1.79%     2 P:x             5.204  0.00     5 C
                                    1.78%     1 P:z            -5.110  0.67     6 C
                                   -1.76%     2 P:x             5.204  0.00     6 C
                                    1.76%     2 S             -20.602  2.00     3 N
                                   -1.71%     3 S              15.062  0.00     3 N
                                   -1.70%     2 P:x             8.457  0.00     1 N
                                    1.70%     1 P:x            -5.110  0.67     8 C
                                   -1.68%     2 P:y             8.457  0.00     4 N
                                   -1.59%     2 P:y             5.204  0.00     9 C
                                   -1.56%     2 P:x             8.457  0.00     2 N
                                   -1.56%     2 S               2.836  0.00    18 H
                                   -1.54%     2 P:x             8.457  0.00     4 N
                                    1.50%     2 S             -15.345  2.00     7 C
                                    1.42%     1 P:z            -7.335  1.00     1 N
                                    1.40%     3 S              42.568  0.00    14 H
                                   -1.25%     2 P:y             8.457  0.00     2 N
                                    1.21%     1 P:y            -5.110  0.67     5 C
                                    1.16%     1 S              -6.641  1.00    13 H
                                    1.09%     1 P:z            -7.335  1.00     4 N
                                    1.01%     3 S              42.568  0.00    18 H
       4.830  0.00    52 A         13.90%     2 P:z             5.204  0.00     5 C
                                    9.15%     1 P:z            -5.110  0.67     5 C
                                    9.01%     2 P:z             5.204  0.00     8 C
                                    8.35%     2 P:z             5.204  0.00     6 C
                                    7.70%     1 P:y            -5.110  0.67     9 C
                                    7.04%     1 P:x            -5.110  0.67     6 C
                                    6.81%     1 P:z            -5.110  0.67     8 C
                                    6.21%     2 P:y             5.204  0.00     8 C
                                    5.50%     1 P:z            -5.110  0.67     6 C
                                   -5.46%     2 P:x             8.457  0.00     4 N
                                   -5.30%     2 P:x             8.457  0.00     3 N
                                    4.91%     2 P:x             5.204  0.00     9 C
                                    4.69%     2 P:x             5.204  0.00     5 C
                                    4.60%     2 P:z             5.204  0.00     9 C
                                   -4.55%     2 P:x             8.457  0.00     2 N
                                    4.52%     2 P:x             5.204  0.00     8 C
                                    4.27%     1 S              -6.641  1.00    11 H
                                    4.26%     1 S              -6.641  1.00    10 H
                                    4.24%     1 S              -6.641  1.00    20 H
                                    4.20%     1 S              -6.641  1.00    16 H
                                   -4.06%     2 P:y             8.457  0.00     1 N
                                   -3.78%     2 P:y             8.457  0.00     3 N
                                   -3.41%     2 P:y             8.457  0.00     2 N
                                    3.12%     2 P:y             5.204  0.00     9 C
                                   -2.94%     2 S               2.836  0.00    11 H
                                   -2.93%     2 S               2.836  0.00    20 H
                                    2.56%     1 P:z            -5.110  0.67     9 C
                                    2.50%     1 P:x            -5.110  0.67     8 C
                                   -2.45%     2 S               2.836  0.00    10 H
                                    2.41%     1 P:x            -5.110  0.67     9 C
                                   -2.39%     2 S               2.836  0.00    16 H
                                    2.32%     1 P:x            -7.335  1.00     3 N
                                    2.29%     2 P:x             5.204  0.00     6 C
                                    2.22%     2 P:y             5.204  0.00     6 C
                                    2.15%     1 P:x            -7.335  1.00     4 N
                                    1.90%     1 P:y            -7.335  1.00     1 N
                                   -1.72%     2 P:x             8.457  0.00     1 N
                                    1.67%     1 P:y            -7.335  1.00     3 N
                                   -1.44%     2 P:x             5.204  0.00     7 C
                                    1.33%     1 P:y            -5.110  0.67     8 C
                                    1.32%     2 P:y             5.204  0.00     5 C
                                    1.30%     1 P:x            -5.110  0.67     7 C
                                   -1.20%     2 P:z             8.457  0.00     1 N
                                   -1.11%     2 P:y             8.457  0.00     4 N
                                   -1.09%     2 P:y             5.204  0.00     7 C



 =======================================================================
 Electrostatic potential at the Nuclei due to electrons and other nuclei
 =======================================================================
  
         Atom                  Potential
         ----                  ---------
     1)   N                  18.38742589
     2)   N                  18.38849353
     3)   N                  18.42944367
     4)   N                  18.38734711
     5)   C                  14.70250590
     6)   H                   1.12199852
     7)   C                  14.72169991
     8)   C                  14.70929032
     9)   C                  14.70248389
    10)   C                  14.72140546
    11)   H                   1.11153268
    12)   H                   1.10456044
    13)   H                   1.04593059
    14)   H                   1.09401188
    15)   H                   1.11929335
    16)   H                   1.12212432
    17)   H                   1.10794924
    18)   H                   1.10511309
    19)   H                   1.10443295
    20)   H                   1.11148369
    21)   H                   1.11876570
 Mulliken charges used for AMS results%charges...


    =====================
     CALCULATION RESULTS
    =====================

Energy (hartree)            -5.05220578


--------------
Atomic charges
--------------
  Index   Atom    Charge
      1      N   -0.4063
      2      N   -0.3394
      3      N   -0.3776
      4      N   -0.4063
      5      C    0.6693
      6      H   -0.1653
      7      C    0.6507
      8      C    0.6263
      9      C    0.6690
     10      C    0.6497
     11      H   -0.1814
     12      H   -0.1847
     13      H    0.0170
     14      H    0.0676
     15      H   -0.1928
     16      H   -0.1660
     17      H   -0.1868
     18      H   -0.1836
     19      H   -0.1847
     20      H   -0.1818
     21      H   -0.1929


Dipole moment vector    (Debye):    -1.79694788   -1.99619327   -0.54903754
              magnitude (Debye):     2.74139590


-----------------------
Molecular orbitals info
-----------------------
n orbitals:              243
n spin:                    1

Note: only printing virtual orbitals with
      energy smaller than HOMO + 100. eV

HOMO (eV):              -5.5437
LUMO (eV):               0.0501
HOMO-LUMO gap (eV):      5.5938

   Index   Energy (eV)    Occupation
     193       92.4357         0.000       
     192       91.6894         0.000       
     191       88.2845         0.000       
     190       84.2017         0.000       
     189       82.4736         0.000       
     188       82.3147         0.000       
     187       82.1438         0.000       
     186       80.6404         0.000       
     185       80.2149         0.000       
     184       79.6967         0.000       
     183       78.1568         0.000       
     182       77.7536         0.000       
     181       76.1824         0.000       
     180       74.9036         0.000       
     179       73.5447         0.000       
     178       72.6534         0.000       
     177       72.1839         0.000       
     176       70.6759         0.000       
     175       70.1180         0.000       
     174       68.8352         0.000       
     173       68.7072         0.000       
     172       67.9021         0.000       
     171       67.4258         0.000       
     170       66.7482         0.000       
     169       65.9114         0.000       
     168       63.9164         0.000       
     167       63.7437         0.000       
     166       63.3282         0.000       
     165       62.3854         0.000       
     164       61.2285         0.000       
     163       60.3008         0.000       
     162       60.1356         0.000       
     161       59.8887         0.000       
     160       59.1706         0.000       
     159       57.1767         0.000       
     158       57.1608         0.000       
     157       56.4714         0.000       
     156       54.3577         0.000       
     155       53.4259         0.000       
     154       52.6845         0.000       
     153       52.0639         0.000       
     152       51.8918         0.000       
     151       51.2402         0.000       
     150       50.8862         0.000       
     149       50.4221         0.000       
     148       50.2930         0.000       
     147       50.1936         0.000       
     146       49.5648         0.000       
     145       48.7908         0.000       
     144       48.5312         0.000       
     143       48.0731         0.000       
     142       46.7804         0.000       
     141       46.7104         0.000       
     140       45.1823         0.000       
     139       45.1333         0.000       
     138       44.8985         0.000       
     137       43.2416         0.000       
     136       42.8373         0.000       
     135       41.5968         0.000       
     134       41.3758         0.000       
     133       40.0301         0.000       
     132       39.0859         0.000       
     131       38.6522         0.000       
     130       38.3394         0.000       
     129       38.1399         0.000       
     128       37.9493         0.000       
     127       37.0714         0.000       
     126       36.6330         0.000       
     125       36.6194         0.000       
     124       36.0963         0.000       
     123       35.6450         0.000       
     122       35.5038         0.000       
     121       35.2480         0.000       
     120       34.6528         0.000       
     119       33.8014         0.000       
     118       33.7501         0.000       
     117       33.1433         0.000       
     116       32.9861         0.000       
     115       32.4411         0.000       
     114       31.8587         0.000       
     113       31.7077         0.000       
     112       30.9769         0.000       
     111       30.4062         0.000       
     110       30.1339         0.000       
     109       29.4667         0.000       
     108       28.7221         0.000       
     107       27.9069         0.000       
     106       27.8822         0.000       
     105       26.7516         0.000       
     104       26.6555         0.000       
     103       26.0385         0.000       
     102       25.9840         0.000       
     101       25.5038         0.000       
     100       25.3087         0.000       
      99       24.1756         0.000       
      98       23.1670         0.000       
      97       22.1304         0.000       
      96       21.7552         0.000       
      95       21.4264         0.000       
      94       20.7148         0.000       
      93       19.3734         0.000       
      92       18.3196         0.000       
      91       17.0487         0.000       
      90       16.9588         0.000       
      89       16.6922         0.000       
      88       16.5577         0.000       
      87       15.8002         0.000       
      86       15.5584         0.000       
      85       14.9524         0.000       
      84       14.8767         0.000       
      83       14.5083         0.000       
      82       13.7518         0.000       
      81       13.5509         0.000       
      80       13.2929         0.000       
      79       12.9325         0.000       
      78       12.7487         0.000       
      77       12.5364         0.000       
      76       12.0644         0.000       
      75       12.0247         0.000       
      74       11.9539         0.000       
      73       11.1347         0.000       
      72       10.5414         0.000       
      71       10.1748         0.000       
      70       10.0623         0.000       
      69        9.2030         0.000       
      68        9.0865         0.000       
      67        8.7192         0.000       
      66        8.6248         0.000       
      65        8.5818         0.000       
      64        8.2731         0.000       
      63        8.1047         0.000       
      62        8.0677         0.000       
      61        7.6197         0.000       
      60        7.3529         0.000       
      59        6.9481         0.000       
      58        6.8624         0.000       
      57        6.3379         0.000       
      56        6.2854         0.000       
      55        5.9004         0.000       
      54        5.7071         0.000       
      53        5.4964         0.000       
      52        4.8300         0.000       
      51        4.6317         0.000       
      50        4.0410         0.000       
      49        3.5875         0.000       
      48        3.3142         0.000       
      47        3.2404         0.000       
      46        2.9883         0.000       
      45        2.7823         0.000       
      44        1.9741         0.000       
      43        1.9511         0.000       
      42        1.8913         0.000       
      41        1.7688         0.000       
      40        1.1987         0.000       
      39        0.8826         0.000       
      38        0.8750         0.000       
      37        0.6876         0.000       
      36        0.0501         0.000 < LUMO
      35       -5.5437         2.000 < HOMO
      34       -5.8868         2.000       
      33       -6.8250         2.000       
      32       -8.1017         2.000       
      31       -9.8860         2.000       
      30      -10.0346         2.000       
      29      -10.3874         2.000       
      28      -10.4087         2.000       
      27      -10.4893         2.000       
      26      -10.7433         2.000       
      25      -11.7972         2.000       
      24      -11.8649         2.000       
      23      -13.0071         2.000       
      22      -13.1283         2.000       
      21      -13.3216         2.000       
      20      -13.5265         2.000       
      19      -14.1101         2.000       
      18      -15.6185         2.000       
      17      -17.2872         2.000       
      16      -17.9491         2.000       
      15      -18.8011         2.000       
      14      -19.4534         2.000       
      13      -22.6848         2.000       
      12      -24.3206         2.000       
      11      -24.5561         2.000       
      10      -27.1216         2.000       
       9     -278.0938         2.000       
       8     -278.1001         2.000       
       7     -278.4381         2.000       
       6     -278.6008         2.000       
       5     -278.6036         2.000       
       4     -388.5510         2.000       
       3     -389.5553         2.000       
       2     -389.5585         2.000       
       1     -389.6207         2.000       

AMS application finished. Exiting.
NORMAL TERMINATION
     Total cpu time:      63.77
  Total system time:       3.06
 Total elapsed time:      68.83
