

 Parallel Execution: Process Information
 ==============================================================================
 Rank   Node Name                              NodeID   MyNodeRank  NodeMaster
    0   Amandas-Mac-mini.local                    0          0          0
    1   Amandas-Mac-mini.local                    0          1         -1
    2   Amandas-Mac-mini.local                    0          2         -1
    3   Amandas-Mac-mini.local                    0          3         -1
 ==============================================================================


May use up to 7812MB of RAM as shared memory on node 0

 *******************************************************************************
 *                                                                             *
 *  --------------------------------                                           *
 *   Amsterdam Modeling Suite (AMS)              2023.103                      *
 *  --------------------------------                                           *
 *                                               r114206 2023-08-04            *
 *                                                                             *
 *                                                                             *
 *                              =================                              *
 *                              |               |                              *
 *                              |     A M S     |                              *
 *                              |               |                              *
 *                              =================                              *
 *                                                                             *
 *                                                                             *
 *   Online information and documentation:  https://www.scm.com/support/       *
 *   E-mail:  support@scm.com   info@scm.com                                   *
 *                                                                             *
 *   Scientific publications using AMS results must be properly referenced     *
 *   See the User Manuals (or the web site) for recommended citations          *
 *   The terms and conditions of the End User License Agreement apply to       *
 *   the use of AMS, https://www.scm.com/license-terms/                        *
 *                                                                             *
 **********************  x86_64_darwin_intel / openmpi  ************************
 
 Licensed to: Dr. Amanda Morgenstern / University of Colorado / Colorado Springs / Colorado / USA 2024-12-20 19:21:38
 SCM User ID: u21568
  
 AMS 2023.103  RunTime: May23-2025 14:10:35  ShM Nodes: 1  Procs: 4

 AMS jobname: ams
 AMS jobid  : 662524705

 Start   directory: /Users/amorgenstern/Library/CloudStorage/OneDrive-UniversityofColoradoColoradoSprings/Research/ESI_ISF_Gertner_Redmon_Cook/manuscript/Final_AMS_Calcs/HEXS/Intermediate2_stabilities/tmp.amorgenstern.56603.0.noindex/
 Results directory: /Users/amorgenstern/Library/CloudStorage/OneDrive-UniversityofColoradoColoradoSprings/Research/ESI_ISF_Gertner_Redmon_Cook/manuscript/Final_AMS_Calcs/HEXS/Intermediate2_stabilities/HMT_I2_B3LYP_TZP_KlamtWater_fragments_noH2O_v2.rest.results/
 Scratch directory: /tmp/amstmp_ams_kid0.662524705/


 Communication costs MPI_COMM_WORLD:      0.427 usec per message,   0.0037 usec per 8-byte item
 Communication costs for intra-node:      0.417 usec per message,   0.0038 usec per 8-byte item

 RNG seed: -2124065011 1084302935 477214408 411345194 -689701669 -333117322 1416505479 1457467009



                      ************************************************************************
                      *  ADF 2023.103  RunTime: May23-2025 14:10:36  ShM Nodes: 1  Procs: 4  *
                      ************************************************************************
  
 Geometry symmetrized to: C1
 Geometry reoriented with symmetry: NOSYM

       ****************************
       * SINGLE POINT CALCULATION *
       ****************************
 
--------
Geometry
--------
Formula: C5H12N4
Atoms
  Index Symbol   x (angstrom)   y (angstrom)   z (angstrom)
      1      N     0.98070305    -0.31177748    -0.54396958       region=rest adf.R=1.83
      2      N     0.45560551    -0.01669343     1.92239326       region=rest adf.R=1.83
      3      N     1.13909077     2.17189876    -0.45528731       region=rest adf.R=1.83
      4      N    -0.96487355     0.94051063     0.03823053       region=rest adf.R=1.83
      5      C     1.23270804    -0.77416641     0.77941403       region=rest adf.R=2.00
      6      H    -0.70691065     2.39036414    -1.40299767       region=rest adf.R=1.30
      7      C     1.67122357     0.91885640    -0.99054595       region=rest adf.R=2.00
      8      C    -0.46055536    -0.16991665    -0.77791233       region=rest adf.R=2.00
      9      C    -0.90463744     0.61423368     1.42133093       region=rest adf.R=2.00
     10      C    -0.32197467     2.19913569    -0.39974418       region=rest adf.R=2.00
     11      H     0.89751192    -1.80327876     0.88077093       region=rest adf.R=1.30
     12      H     2.28831388    -0.71006629     1.03054804       region=rest adf.R=1.30
     13      H     0.17168502    -0.75061678     2.57164921       region=rest adf.R=1.30
     14      H     1.54743843     2.40014487     0.44116142       region=rest adf.R=1.30
     15      H     2.72918066     0.84403214    -0.74655841       region=rest adf.R=1.30
     16      H     1.56722076     0.93356984    -2.07708397       region=rest adf.R=1.30
     17      H    -0.97549656    -1.09339264    -0.51251091       region=rest adf.R=1.30
     18      H    -0.63643081     0.04666393    -1.82995414       region=rest adf.R=1.30
     19      H    -1.08154601     1.48490775     2.04759734       region=rest adf.R=1.30
     20      H    -1.63313797    -0.15893512     1.65121133       region=rest adf.R=1.30
     21      H    -0.64098061     3.00992925     0.25240830       region=rest adf.R=1.30
 
Total System Charge             0.00000
Bonding info available!
 
 
----------------
ADF Engine Input
----------------
 
 Basis
 Type TZP
 Core None
 End
 Save TAPE10
 ALLOW  FRACTIONAL
 XC
 Hybrid B3LYP
 End
 Title rest fragment
 Relativity
 Level None
 End
 Symmetry NOSYM
 Solvation
 Surf Delley
 Solv name=Water cav0=0.0 cav1=0.0067639
 Charged method=CONJ
 C-Mat POT
 SCF VAR ALL
 CSMRSP
 End
 

 Title: rest fragment

 *** adf ***



 ===========================
 A T T A C H E D   F I L E S
 ===========================
  



 ===============================
 M O D E L   P A R A M E T E R S
 ===============================
  
 DENSITY FUNCTIONAL POTENTIAL (scf)
    Hybrid:                            B3LYP                                   == Not Default ==

 SPIN  (restricted / unrestr.)
    Molecule:                          Restricted                               
    Fragments:                         Restricted                               

 OTHER ASPECTS
    Relativistic Corrections:          ---                                     == Not Default ==

    Nuclear Charge Density Model:      Point Charge Nuclei                      
    Core Treatment:                    Frozen Orbital(s)                        

    Hyperfine or Zeeman Interaction:   ---                                      

 SOLVATION
-------------------------------------------

  The Delley construction of COSMO surface surface is calculated

       Division Level for Surface Triangles (NDIV)                  3
       Final Division Level for Triangles (NFDIV)                   1
       Radius of the Solvent (RSOL)                           1.93000 angstr
  Dielectric Constant (EPSL)                                 78.39000

       COSMO equation is solved iteratively-               conjugate-gradient

       Maximun of Iterations for Charges (NCIX)                  1000
       Criterion for Charge convergence (CCNV)                1.0E-08

  COSMO charges included variationally in SCF

       COSMO included at every SCF cycle

  Geometry-dependent empirical factor                         0.00000

  C-Matrix calculated in cspmtx

  In cspmtx, C-Matrix calculated using fitted potential

-------------------------------------------



 Fragment File(s)
 ----------------
 N:
         file : /Users/amorgenstern/Library/CloudStorage/OneDrive-UniversityofColoradoColoradoSprings/Research/ESI_ISF_Gertner_Redmon_Cook/manuscript/Final_AMS_Calcs/HEXS/Intermediate2_stabilities/HMT_I2_B3LYP_TZP_KlamtWater_fragments_noH2O_v2.rest.results/t21.300AD590.N
         jobid: 0
         title: Nitrogen (TZP)
 C:
         file : /Users/amorgenstern/Library/CloudStorage/OneDrive-UniversityofColoradoColoradoSprings/Research/ESI_ISF_Gertner_Redmon_Cook/manuscript/Final_AMS_Calcs/HEXS/Intermediate2_stabilities/HMT_I2_B3LYP_TZP_KlamtWater_fragments_noH2O_v2.rest.results/t21.A121E74.C
         jobid: 0
         title: Carbon (TZP)
 H:
         file : /Users/amorgenstern/Library/CloudStorage/OneDrive-UniversityofColoradoColoradoSprings/Research/ESI_ISF_Gertner_Redmon_Cook/manuscript/Final_AMS_Calcs/HEXS/Intermediate2_stabilities/HMT_I2_B3LYP_TZP_KlamtWater_fragments_noH2O_v2.rest.results/t21.C53890E.H
         jobid: 0
         title: Hydrogen (TZP)



 ===============
 G E O M E T R Y  ***  3D  Molecule  ***
 ===============
  

 ATOMS
 =====                            X Y Z                    CHARGE                     RADIUS
                                (Angstrom)             Nucl     +Core       At.Mass (Angstrom)
                       --------------------------    ----------------       ------- ----------
    1  N               0.9807   -0.3118   -0.5440      7.00      7.00       14.0031    1.8300
    2  N               0.4556   -0.0167    1.9224      7.00      7.00       14.0031    1.8300
    3  N               1.1391    2.1719   -0.4553      7.00      7.00       14.0031    1.8300
    4  N              -0.9649    0.9405    0.0382      7.00      7.00       14.0031    1.8300
    5  C               1.2327   -0.7742    0.7794      6.00      6.00       12.0000    2.0000
    6  H              -0.7069    2.3904   -1.4030      1.00      1.00        1.0078    1.3000
    7  C               1.6712    0.9189   -0.9905      6.00      6.00       12.0000    2.0000
    8  C              -0.4606   -0.1699   -0.7779      6.00      6.00       12.0000    2.0000
    9  C              -0.9046    0.6142    1.4213      6.00      6.00       12.0000    2.0000
   10  C              -0.3220    2.1991   -0.3997      6.00      6.00       12.0000    2.0000
   11  H               0.8975   -1.8033    0.8808      1.00      1.00        1.0078    1.3000
   12  H               2.2883   -0.7101    1.0305      1.00      1.00        1.0078    1.3000
   13  H               0.1717   -0.7506    2.5716      1.00      1.00        1.0078    1.3000
   14  H               1.5474    2.4001    0.4412      1.00      1.00        1.0078    1.3000
   15  H               2.7292    0.8440   -0.7466      1.00      1.00        1.0078    1.3000
   16  H               1.5672    0.9336   -2.0771      1.00      1.00        1.0078    1.3000
   17  H              -0.9755   -1.0934   -0.5125      1.00      1.00        1.0078    1.3000
   18  H              -0.6364    0.0467   -1.8300      1.00      1.00        1.0078    1.3000
   19  H              -1.0815    1.4849    2.0476      1.00      1.00        1.0078    1.3000
   20  H              -1.6331   -0.1589    1.6512      1.00      1.00        1.0078    1.3000
   21  H              -0.6410    3.0099    0.2524      1.00      1.00        1.0078    1.3000


 FRAGMENTS
 =========                                     Atoms in this Fragment     Cart. coord.s (Angstrom)
                                               -------------------------------------------------------
    1  N                                                 1  N            0.9807   -0.3118   -0.5440
    2  N                                                 2  N            0.4556   -0.0167    1.9224
    3  N                                                 3  N            1.1391    2.1719   -0.4553
    4  N                                                 4  N           -0.9649    0.9405    0.0382
    5  C                                                 5  C            1.2327   -0.7742    0.7794
    6  C                                                 7  C            1.6712    0.9189   -0.9905
    7  C                                                 8  C           -0.4606   -0.1699   -0.7779
    8  C                                                 9  C           -0.9046    0.6142    1.4213
    9  C                                                10  C           -0.3220    2.1991   -0.3997
   10  H                                                 6  H           -0.7069    2.3904   -1.4030
   11  H                                                11  H            0.8975   -1.8033    0.8808
   12  H                                                12  H            2.2883   -0.7101    1.0305
   13  H                                                13  H            0.1717   -0.7506    2.5716
   14  H                                                14  H            1.5474    2.4001    0.4412
   15  H                                                15  H            2.7292    0.8440   -0.7466
   16  H                                                16  H            1.5672    0.9336   -2.0771
   17  H                                                17  H           -0.9755   -1.0934   -0.5125
   18  H                                                18  H           -0.6364    0.0467   -1.8300
   19  H                                                19  H           -1.0815    1.4849    2.0476
   20  H                                                20  H           -1.6331   -0.1589    1.6512
   21  H                                                21  H           -0.6410    3.0099    0.2524



 =====================================
 S Y M M E T R Y ,   E L E C T R O N S
 =====================================
  
 Symmetry: NOSYM

 Irreducible Representations, including subspecies
 -------------------------------------------------
 A

 Symmetry is NOT used when fitting density


 Configuration of Valence Electrons
 ==================================
 ( determined in the SCF procedure )

 Total:   70

 Net Charge: 0 (Nuclei minus Electrons)

 Aufbau principle for MO occupations will be applied through SCF cycle no.     150
 Thereafter, the program will assign electrons to MOs that are spatially
 similar to the occupied MOs in a "reference" cycle ("KeepOrbitals").
 The reference cycle is always the PREVIOUS cycle: it will evolve with
 the SCF procedure.
1
 ***************************************************************************************************



                                      ****************************************
                                      *  B U I L D : (Fragments, Functions)  *
                                      ****************************************
  



 =======
 S F O s  ***  (Symmetrized Fragment Orbitals)  ***
 =======
  
 SFOs are linear combinations of (valence) Fragment Orbitals (FOs), such that the SFOs transform as the
 irreducible representations of the (molecular) symmetry group. Each SFO is therefore characterized by
 an irrep of the molecule and by a few (or only one) generating FOs.
 The SFOs constitute a symmetry-adapted basis for the Fock matrix. The MO eigenvector coefficients in
 this basis provide a direct interpretation of the MOs in terms of Frontier Orbital Theory.

 The SFOs are combined with auxiliary Core Functions (CFs) to ensure orthogonalization on the (frozen)
 Core Orbitals (COs). The Core-orthogonalized SFOs (CSFOs) constitute the true Fock basis.

 The FOs, and hence also the (C)SFOs are combinations of the elementary basis functions (BAS). The basis
 functions that participate in the description of the SFOs depend on the irrep. The indices of the
 involved functions are printed below for each irrep.
 (The complete list of primitive basis functions is printed in another section)

 Total nr. of (C)SFOs (summation over all irreps) :   243

 NOTE: a (C)SFO that is defined as a combination of more than one FO is usually NOT normalized.



                                       === A ===
 Nr. of SFOs :  243
 Cartesian basis functions that participate in this irrep (total number =   252) :
      1     2     3     4     5     6     9    12     7    10
     13     8    11    14    15    16    17    18    19    20
     21    22    23    24    25    26    29    32    27    30
     33    28    31    34    35    36    37    38    39    40
     41    42    43    44    45    46    49    52    47    50
     53    48    51    54    55    56    57    58    59    60
     61    62    63    64    65    66    69    72    67    70
     73    68    71    74    75    76    77    78    79    80
     81    82    83    84    85    86    89    92    87    90
     93    88    91    94    95    96    97    98    99   100
    101   102   103   104   105   106   109   112   107   110
    113   108   111   114   115   116   117   118   119   120
    121   122   123   124   125   126   129   132   127   130
    133   128   131   134   135   136   137   138   139   140
    141   142   143   144   145   146   149   152   147   150
    153   148   151   154   155   156   157   158   159   160
    161   162   163   164   165   166   169   172   167   170
    173   168   171   174   175   176   177   178   179   180
    181   182   183   184   185   186   187   188   189   190
    191   192   193   194   195   196   197   198   199   200
    201   202   203   204   205   206   207   208   209   210
    211   212   213   214   215   216   217   218   219   220
    221   222   223   224   225   226   227   228   229   230
    231   232   233   234   235   236   237   238   239   240
    241   242   243   244   245   246   247   248   249   250
    251   252

    SFO  (index         Fragment          Generating    Expansion in Fragment Orbitals
  indx  incl.CFs)   Occup   Orb.Energy   FragmentType  Coeff.   Orbital     on Fragment
 --------------------------------------------------------------------------------------
     1       1      2.000     -14.485 au  N             1.00      1 S               1
                        (    -394.151 eV)
     2       2      2.000      -0.757 au  N             1.00      2 S               1
                        (     -20.602 eV)
     3       3       --         0.554 au  N             1.00      3 S               1
                        (      15.062 eV)
     4       4       --         6.997 au  N             1.00      4 S               1
                        (     190.405 eV)
     5       5       --        64.402 au  N             1.00      5 S               1
                        (    1752.461 eV)
     6       6      1.000      -0.270 au  N             1.00      1 P:x             1
                        (      -7.335 eV)
     7       7       --         0.311 au  N             1.00      2 P:x             1
                        (       8.457 eV)
     8       8       --         3.375 au  N             1.00      3 P:x             1
                        (      91.843 eV)
     9       9      1.000      -0.270 au  N             1.00      1 P:y             1
                        (      -7.335 eV)
    10      10       --         0.311 au  N             1.00      2 P:y             1
                        (       8.457 eV)
    11      11       --         3.375 au  N             1.00      3 P:y             1
                        (      91.843 eV)
    12      12      1.000      -0.270 au  N             1.00      1 P:z             1
                        (      -7.335 eV)
    13      13       --         0.311 au  N             1.00      2 P:z             1
                        (       8.457 eV)
    14      14       --         3.375 au  N             1.00      3 P:z             1
                        (      91.843 eV)
    15      15       --         1.299 au  N             1.00      1 D:z2            1
                        (      35.360 eV)
    16      16       --         1.299 au  N             1.00      1 D:x2-y2         1
                        (      35.360 eV)
    17      17       --         1.299 au  N             1.00      1 D:xy            1
                        (      35.360 eV)
    18      18       --         1.299 au  N             1.00      1 D:xz            1
                        (      35.360 eV)
    19      19       --         1.299 au  N             1.00      1 D:yz            1
                        (      35.360 eV)
    20      20      2.000     -14.485 au  N             1.00      1 S               2
                        (    -394.151 eV)
    21      21      2.000      -0.757 au  N             1.00      2 S               2
                        (     -20.602 eV)
    22      22       --         0.554 au  N             1.00      3 S               2
                        (      15.062 eV)
    23      23       --         6.997 au  N             1.00      4 S               2
                        (     190.405 eV)
    24      24       --        64.402 au  N             1.00      5 S               2
                        (    1752.461 eV)
    25      25      1.000      -0.270 au  N             1.00      1 P:x             2
                        (      -7.335 eV)
    26      26       --         0.311 au  N             1.00      2 P:x             2
                        (       8.457 eV)
    27      27       --         3.375 au  N             1.00      3 P:x             2
                        (      91.843 eV)
    28      28      1.000      -0.270 au  N             1.00      1 P:y             2
                        (      -7.335 eV)
    29      29       --         0.311 au  N             1.00      2 P:y             2
                        (       8.457 eV)
    30      30       --         3.375 au  N             1.00      3 P:y             2
                        (      91.843 eV)
    31      31      1.000      -0.270 au  N             1.00      1 P:z             2
                        (      -7.335 eV)
    32      32       --         0.311 au  N             1.00      2 P:z             2
                        (       8.457 eV)
    33      33       --         3.375 au  N             1.00      3 P:z             2
                        (      91.843 eV)
    34      34       --         1.299 au  N             1.00      1 D:z2            2
                        (      35.360 eV)
    35      35       --         1.299 au  N             1.00      1 D:x2-y2         2
                        (      35.360 eV)
    36      36       --         1.299 au  N             1.00      1 D:xy            2
                        (      35.360 eV)
    37      37       --         1.299 au  N             1.00      1 D:xz            2
                        (      35.360 eV)
    38      38       --         1.299 au  N             1.00      1 D:yz            2
                        (      35.360 eV)
    39      39      2.000     -14.485 au  N             1.00      1 S               3
                        (    -394.151 eV)
    40      40      2.000      -0.757 au  N             1.00      2 S               3
                        (     -20.602 eV)
    41      41       --         0.554 au  N             1.00      3 S               3
                        (      15.062 eV)
    42      42       --         6.997 au  N             1.00      4 S               3
                        (     190.405 eV)
    43      43       --        64.402 au  N             1.00      5 S               3
                        (    1752.461 eV)
    44      44      1.000      -0.270 au  N             1.00      1 P:x             3
                        (      -7.335 eV)
    45      45       --         0.311 au  N             1.00      2 P:x             3
                        (       8.457 eV)
    46      46       --         3.375 au  N             1.00      3 P:x             3
                        (      91.843 eV)
    47      47      1.000      -0.270 au  N             1.00      1 P:y             3
                        (      -7.335 eV)
    48      48       --         0.311 au  N             1.00      2 P:y             3
                        (       8.457 eV)
    49      49       --         3.375 au  N             1.00      3 P:y             3
                        (      91.843 eV)
    50      50      1.000      -0.270 au  N             1.00      1 P:z             3
                        (      -7.335 eV)
    51      51       --         0.311 au  N             1.00      2 P:z             3
                        (       8.457 eV)
    52      52       --         3.375 au  N             1.00      3 P:z             3
                        (      91.843 eV)
    53      53       --         1.299 au  N             1.00      1 D:z2            3
                        (      35.360 eV)
    54      54       --         1.299 au  N             1.00      1 D:x2-y2         3
                        (      35.360 eV)
    55      55       --         1.299 au  N             1.00      1 D:xy            3
                        (      35.360 eV)
    56      56       --         1.299 au  N             1.00      1 D:xz            3
                        (      35.360 eV)
    57      57       --         1.299 au  N             1.00      1 D:yz            3
                        (      35.360 eV)
    58      58      2.000     -14.485 au  N             1.00      1 S               4
                        (    -394.151 eV)
    59      59      2.000      -0.757 au  N             1.00      2 S               4
                        (     -20.602 eV)
    60      60       --         0.554 au  N             1.00      3 S               4
                        (      15.062 eV)
    61      61       --         6.997 au  N             1.00      4 S               4
                        (     190.405 eV)
    62      62       --        64.402 au  N             1.00      5 S               4
                        (    1752.461 eV)
    63      63      1.000      -0.270 au  N             1.00      1 P:x             4
                        (      -7.335 eV)
    64      64       --         0.311 au  N             1.00      2 P:x             4
                        (       8.457 eV)
    65      65       --         3.375 au  N             1.00      3 P:x             4
                        (      91.843 eV)
    66      66      1.000      -0.270 au  N             1.00      1 P:y             4
                        (      -7.335 eV)
    67      67       --         0.311 au  N             1.00      2 P:y             4
                        (       8.457 eV)
    68      68       --         3.375 au  N             1.00      3 P:y             4
                        (      91.843 eV)
    69      69      1.000      -0.270 au  N             1.00      1 P:z             4
                        (      -7.335 eV)
    70      70       --         0.311 au  N             1.00      2 P:z             4
                        (       8.457 eV)
    71      71       --         3.375 au  N             1.00      3 P:z             4
                        (      91.843 eV)
    72      72       --         1.299 au  N             1.00      1 D:z2            4
                        (      35.360 eV)
    73      73       --         1.299 au  N             1.00      1 D:x2-y2         4
                        (      35.360 eV)
    74      74       --         1.299 au  N             1.00      1 D:xy            4
                        (      35.360 eV)
    75      75       --         1.299 au  N             1.00      1 D:xz            4
                        (      35.360 eV)
    76      76       --         1.299 au  N             1.00      1 D:yz            4
                        (      35.360 eV)
    77      77      2.000     -10.347 au  C             1.00      1 S               5
                        (    -281.544 eV)
    78      78      2.000      -0.564 au  C             1.00      2 S               5
                        (     -15.345 eV)
    79      79       --         0.402 au  C             1.00      3 S               5
                        (      10.943 eV)
    80      80       --         5.509 au  C             1.00      4 S               5
                        (     149.900 eV)
    81      81       --        50.546 au  C             1.00      5 S               5
                        (    1375.414 eV)
    82      82      0.667      -0.188 au  C             1.00      1 P:x             5
                        (      -5.110 eV)
    83      83       --         0.191 au  C             1.00      2 P:x             5
                        (       5.204 eV)
    84      84       --         2.089 au  C             1.00      3 P:x             5
                        (      56.851 eV)
    85      85      0.667      -0.188 au  C             1.00      1 P:y             5
                        (      -5.110 eV)
    86      86       --         0.191 au  C             1.00      2 P:y             5
                        (       5.204 eV)
    87      87       --         2.089 au  C             1.00      3 P:y             5
                        (      56.851 eV)
    88      88      0.667      -0.188 au  C             1.00      1 P:z             5
                        (      -5.110 eV)
    89      89       --         0.191 au  C             1.00      2 P:z             5
                        (       5.204 eV)
    90      90       --         2.089 au  C             1.00      3 P:z             5
                        (      56.851 eV)
    91      91       --         1.292 au  C             1.00      1 D:z2            5
                        (      35.150 eV)
    92      92       --         1.292 au  C             1.00      1 D:x2-y2         5
                        (      35.150 eV)
    93      93       --         1.292 au  C             1.00      1 D:xy            5
                        (      35.150 eV)
    94      94       --         1.292 au  C             1.00      1 D:xz            5
                        (      35.150 eV)
    95      95       --         1.292 au  C             1.00      1 D:yz            5
                        (      35.150 eV)
    96      96      2.000     -10.347 au  C             1.00      1 S               6
                        (    -281.544 eV)
    97      97      2.000      -0.564 au  C             1.00      2 S               6
                        (     -15.345 eV)
    98      98       --         0.402 au  C             1.00      3 S               6
                        (      10.943 eV)
    99      99       --         5.509 au  C             1.00      4 S               6
                        (     149.900 eV)
   100     100       --        50.546 au  C             1.00      5 S               6
                        (    1375.414 eV)
   101     101      0.667      -0.188 au  C             1.00      1 P:x             6
                        (      -5.110 eV)
   102     102       --         0.191 au  C             1.00      2 P:x             6
                        (       5.204 eV)
   103     103       --         2.089 au  C             1.00      3 P:x             6
                        (      56.851 eV)
   104     104      0.667      -0.188 au  C             1.00      1 P:y             6
                        (      -5.110 eV)
   105     105       --         0.191 au  C             1.00      2 P:y             6
                        (       5.204 eV)
   106     106       --         2.089 au  C             1.00      3 P:y             6
                        (      56.851 eV)
   107     107      0.667      -0.188 au  C             1.00      1 P:z             6
                        (      -5.110 eV)
   108     108       --         0.191 au  C             1.00      2 P:z             6
                        (       5.204 eV)
   109     109       --         2.089 au  C             1.00      3 P:z             6
                        (      56.851 eV)
   110     110       --         1.292 au  C             1.00      1 D:z2            6
                        (      35.150 eV)
   111     111       --         1.292 au  C             1.00      1 D:x2-y2         6
                        (      35.150 eV)
   112     112       --         1.292 au  C             1.00      1 D:xy            6
                        (      35.150 eV)
   113     113       --         1.292 au  C             1.00      1 D:xz            6
                        (      35.150 eV)
   114     114       --         1.292 au  C             1.00      1 D:yz            6
                        (      35.150 eV)
   115     115      2.000     -10.347 au  C             1.00      1 S               7
                        (    -281.544 eV)
   116     116      2.000      -0.564 au  C             1.00      2 S               7
                        (     -15.345 eV)
   117     117       --         0.402 au  C             1.00      3 S               7
                        (      10.943 eV)
   118     118       --         5.509 au  C             1.00      4 S               7
                        (     149.900 eV)
   119     119       --        50.546 au  C             1.00      5 S               7
                        (    1375.414 eV)
   120     120      0.667      -0.188 au  C             1.00      1 P:x             7
                        (      -5.110 eV)
   121     121       --         0.191 au  C             1.00      2 P:x             7
                        (       5.204 eV)
   122     122       --         2.089 au  C             1.00      3 P:x             7
                        (      56.851 eV)
   123     123      0.667      -0.188 au  C             1.00      1 P:y             7
                        (      -5.110 eV)
   124     124       --         0.191 au  C             1.00      2 P:y             7
                        (       5.204 eV)
   125     125       --         2.089 au  C             1.00      3 P:y             7
                        (      56.851 eV)
   126     126      0.667      -0.188 au  C             1.00      1 P:z             7
                        (      -5.110 eV)
   127     127       --         0.191 au  C             1.00      2 P:z             7
                        (       5.204 eV)
   128     128       --         2.089 au  C             1.00      3 P:z             7
                        (      56.851 eV)
   129     129       --         1.292 au  C             1.00      1 D:z2            7
                        (      35.150 eV)
   130     130       --         1.292 au  C             1.00      1 D:x2-y2         7
                        (      35.150 eV)
   131     131       --         1.292 au  C             1.00      1 D:xy            7
                        (      35.150 eV)
   132     132       --         1.292 au  C             1.00      1 D:xz            7
                        (      35.150 eV)
   133     133       --         1.292 au  C             1.00      1 D:yz            7
                        (      35.150 eV)
   134     134      2.000     -10.347 au  C             1.00      1 S               8
                        (    -281.544 eV)
   135     135      2.000      -0.564 au  C             1.00      2 S               8
                        (     -15.345 eV)
   136     136       --         0.402 au  C             1.00      3 S               8
                        (      10.943 eV)
   137     137       --         5.509 au  C             1.00      4 S               8
                        (     149.900 eV)
   138     138       --        50.546 au  C             1.00      5 S               8
                        (    1375.414 eV)
   139     139      0.667      -0.188 au  C             1.00      1 P:x             8
                        (      -5.110 eV)
   140     140       --         0.191 au  C             1.00      2 P:x             8
                        (       5.204 eV)
   141     141       --         2.089 au  C             1.00      3 P:x             8
                        (      56.851 eV)
   142     142      0.667      -0.188 au  C             1.00      1 P:y             8
                        (      -5.110 eV)
   143     143       --         0.191 au  C             1.00      2 P:y             8
                        (       5.204 eV)
   144     144       --         2.089 au  C             1.00      3 P:y             8
                        (      56.851 eV)
   145     145      0.667      -0.188 au  C             1.00      1 P:z             8
                        (      -5.110 eV)
   146     146       --         0.191 au  C             1.00      2 P:z             8
                        (       5.204 eV)
   147     147       --         2.089 au  C             1.00      3 P:z             8
                        (      56.851 eV)
   148     148       --         1.292 au  C             1.00      1 D:z2            8
                        (      35.150 eV)
   149     149       --         1.292 au  C             1.00      1 D:x2-y2         8
                        (      35.150 eV)
   150     150       --         1.292 au  C             1.00      1 D:xy            8
                        (      35.150 eV)
   151     151       --         1.292 au  C             1.00      1 D:xz            8
                        (      35.150 eV)
   152     152       --         1.292 au  C             1.00      1 D:yz            8
                        (      35.150 eV)
   153     153      2.000     -10.347 au  C             1.00      1 S               9
                        (    -281.544 eV)
   154     154      2.000      -0.564 au  C             1.00      2 S               9
                        (     -15.345 eV)
   155     155       --         0.402 au  C             1.00      3 S               9
                        (      10.943 eV)
   156     156       --         5.509 au  C             1.00      4 S               9
                        (     149.900 eV)
   157     157       --        50.546 au  C             1.00      5 S               9
                        (    1375.414 eV)
   158     158      0.667      -0.188 au  C             1.00      1 P:x             9
                        (      -5.110 eV)
   159     159       --         0.191 au  C             1.00      2 P:x             9
                        (       5.204 eV)
   160     160       --         2.089 au  C             1.00      3 P:x             9
                        (      56.851 eV)
   161     161      0.667      -0.188 au  C             1.00      1 P:y             9
                        (      -5.110 eV)
   162     162       --         0.191 au  C             1.00      2 P:y             9
                        (       5.204 eV)
   163     163       --         2.089 au  C             1.00      3 P:y             9
                        (      56.851 eV)
   164     164      0.667      -0.188 au  C             1.00      1 P:z             9
                        (      -5.110 eV)
   165     165       --         0.191 au  C             1.00      2 P:z             9
                        (       5.204 eV)
   166     166       --         2.089 au  C             1.00      3 P:z             9
                        (      56.851 eV)
   167     167       --         1.292 au  C             1.00      1 D:z2            9
                        (      35.150 eV)
   168     168       --         1.292 au  C             1.00      1 D:x2-y2         9
                        (      35.150 eV)
   169     169       --         1.292 au  C             1.00      1 D:xy            9
                        (      35.150 eV)
   170     170       --         1.292 au  C             1.00      1 D:xz            9
                        (      35.150 eV)
   171     171       --         1.292 au  C             1.00      1 D:yz            9
                        (      35.150 eV)
   172     172      1.000      -0.244 au  H             1.00      1 S              10
                        (      -6.641 eV)
   173     173       --         0.104 au  H             1.00      2 S              10
                        (       2.836 eV)
   174     174       --         1.564 au  H             1.00      3 S              10
                        (      42.568 eV)
   175     175       --         0.436 au  H             1.00      1 P:x            10
                        (      11.865 eV)
   176     176       --         0.436 au  H             1.00      1 P:y            10
                        (      11.865 eV)
   177     177       --         0.436 au  H             1.00      1 P:z            10
                        (      11.865 eV)
   178     178      1.000      -0.244 au  H             1.00      1 S              11
                        (      -6.641 eV)
   179     179       --         0.104 au  H             1.00      2 S              11
                        (       2.836 eV)
   180     180       --         1.564 au  H             1.00      3 S              11
                        (      42.568 eV)
   181     181       --         0.436 au  H             1.00      1 P:x            11
                        (      11.865 eV)
   182     182       --         0.436 au  H             1.00      1 P:y            11
                        (      11.865 eV)
   183     183       --         0.436 au  H             1.00      1 P:z            11
                        (      11.865 eV)
   184     184      1.000      -0.244 au  H             1.00      1 S              12
                        (      -6.641 eV)
   185     185       --         0.104 au  H             1.00      2 S              12
                        (       2.836 eV)
   186     186       --         1.564 au  H             1.00      3 S              12
                        (      42.568 eV)
   187     187       --         0.436 au  H             1.00      1 P:x            12
                        (      11.865 eV)
   188     188       --         0.436 au  H             1.00      1 P:y            12
                        (      11.865 eV)
   189     189       --         0.436 au  H             1.00      1 P:z            12
                        (      11.865 eV)
   190     190      1.000      -0.244 au  H             1.00      1 S              13
                        (      -6.641 eV)
   191     191       --         0.104 au  H             1.00      2 S              13
                        (       2.836 eV)
   192     192       --         1.564 au  H             1.00      3 S              13
                        (      42.568 eV)
   193     193       --         0.436 au  H             1.00      1 P:x            13
                        (      11.865 eV)
   194     194       --         0.436 au  H             1.00      1 P:y            13
                        (      11.865 eV)
   195     195       --         0.436 au  H             1.00      1 P:z            13
                        (      11.865 eV)
   196     196      1.000      -0.244 au  H             1.00      1 S              14
                        (      -6.641 eV)
   197     197       --         0.104 au  H             1.00      2 S              14
                        (       2.836 eV)
   198     198       --         1.564 au  H             1.00      3 S              14
                        (      42.568 eV)
   199     199       --         0.436 au  H             1.00      1 P:x            14
                        (      11.865 eV)
   200     200       --         0.436 au  H             1.00      1 P:y            14
                        (      11.865 eV)
   201     201       --         0.436 au  H             1.00      1 P:z            14
                        (      11.865 eV)
   202     202      1.000      -0.244 au  H             1.00      1 S              15
                        (      -6.641 eV)
   203     203       --         0.104 au  H             1.00      2 S              15
                        (       2.836 eV)
   204     204       --         1.564 au  H             1.00      3 S              15
                        (      42.568 eV)
   205     205       --         0.436 au  H             1.00      1 P:x            15
                        (      11.865 eV)
   206     206       --         0.436 au  H             1.00      1 P:y            15
                        (      11.865 eV)
   207     207       --         0.436 au  H             1.00      1 P:z            15
                        (      11.865 eV)
   208     208      1.000      -0.244 au  H             1.00      1 S              16
                        (      -6.641 eV)
   209     209       --         0.104 au  H             1.00      2 S              16
                        (       2.836 eV)
   210     210       --         1.564 au  H             1.00      3 S              16
                        (      42.568 eV)
   211     211       --         0.436 au  H             1.00      1 P:x            16
                        (      11.865 eV)
   212     212       --         0.436 au  H             1.00      1 P:y            16
                        (      11.865 eV)
   213     213       --         0.436 au  H             1.00      1 P:z            16
                        (      11.865 eV)
   214     214      1.000      -0.244 au  H             1.00      1 S              17
                        (      -6.641 eV)
   215     215       --         0.104 au  H             1.00      2 S              17
                        (       2.836 eV)
   216     216       --         1.564 au  H             1.00      3 S              17
                        (      42.568 eV)
   217     217       --         0.436 au  H             1.00      1 P:x            17
                        (      11.865 eV)
   218     218       --         0.436 au  H             1.00      1 P:y            17
                        (      11.865 eV)
   219     219       --         0.436 au  H             1.00      1 P:z            17
                        (      11.865 eV)
   220     220      1.000      -0.244 au  H             1.00      1 S              18
                        (      -6.641 eV)
   221     221       --         0.104 au  H             1.00      2 S              18
                        (       2.836 eV)
   222     222       --         1.564 au  H             1.00      3 S              18
                        (      42.568 eV)
   223     223       --         0.436 au  H             1.00      1 P:x            18
                        (      11.865 eV)
   224     224       --         0.436 au  H             1.00      1 P:y            18
                        (      11.865 eV)
   225     225       --         0.436 au  H             1.00      1 P:z            18
                        (      11.865 eV)
   226     226      1.000      -0.244 au  H             1.00      1 S              19
                        (      -6.641 eV)
   227     227       --         0.104 au  H             1.00      2 S              19
                        (       2.836 eV)
   228     228       --         1.564 au  H             1.00      3 S              19
                        (      42.568 eV)
   229     229       --         0.436 au  H             1.00      1 P:x            19
                        (      11.865 eV)
   230     230       --         0.436 au  H             1.00      1 P:y            19
                        (      11.865 eV)
   231     231       --         0.436 au  H             1.00      1 P:z            19
                        (      11.865 eV)
   232     232      1.000      -0.244 au  H             1.00      1 S              20
                        (      -6.641 eV)
   233     233       --         0.104 au  H             1.00      2 S              20
                        (       2.836 eV)
   234     234       --         1.564 au  H             1.00      3 S              20
                        (      42.568 eV)
   235     235       --         0.436 au  H             1.00      1 P:x            20
                        (      11.865 eV)
   236     236       --         0.436 au  H             1.00      1 P:y            20
                        (      11.865 eV)
   237     237       --         0.436 au  H             1.00      1 P:z            20
                        (      11.865 eV)
   238     238      1.000      -0.244 au  H             1.00      1 S              21
                        (      -6.641 eV)
   239     239       --         0.104 au  H             1.00      2 S              21
                        (       2.836 eV)
   240     240       --         1.564 au  H             1.00      3 S              21
                        (      42.568 eV)
   241     241       --         0.436 au  H             1.00      1 P:x            21
                        (      11.865 eV)
   242     242       --         0.436 au  H             1.00      1 P:y            21
                        (      11.865 eV)
   243     243       --         0.436 au  H             1.00      1 P:z            21
                        (      11.865 eV)



 ================================
 (Slater-type)  F U N C T I O N S  ***  (Basis and Fit)  ***
 ================================
  

 Atom Type    1  (N)
 ==============

 Valence Basis Sets:   9
 -----------------------
   1 S    8.740000
   1 S    5.900000
   2 S    5.150000
   2 S    2.500000
   2 S    1.500000
   2 P    3.680000
   2 P    1.880000
   2 P    1.000000
   3 D    2.200000

 Charge Fitting Sets (for the computation of the Coulomb Potential):  22
 -----------------------------------------------------------------------
   1 S   17.480000
   2 S   20.150000
   2 S   13.990000
   2 S    9.710000
   2 S    6.740000
   3 S    6.860000
   3 S    5.040000
   3 S    3.700000
   3 S    2.720000
   3 S    2.000000
   2 P   11.320000
   2 P    6.730000
   3 P    5.920000
   3 P    3.820000
   3 P    2.460000
   3 D    8.100000
   3 D    5.080000
   3 D    3.190000
   3 D    2.000000
   4 F    5.800000
   4 F    3.600000
   5 G    4.500000

 Atom Type    2  (C)
 ==============

 Valence Basis Sets:   9
 -----------------------
   1 S    7.680000
   1 S    5.000000
   2 S    1.280000
   2 S    2.100000
   2 S    4.600000
   2 P    0.820000
   2 P    1.480000
   2 P    2.940000
   3 D    2.200000

 Charge Fitting Sets (for the computation of the Coulomb Potential):  22
 -----------------------------------------------------------------------
   1 S   15.360000
   2 S   17.530000
   2 S   12.070000
   2 S    8.310000
   2 S    5.730000
   3 S    5.780000
   3 S    4.220000
   3 S    3.080000
   3 S    2.250000
   3 S    1.640000
   2 P    9.880000
   2 P    5.800000
   3 P    5.050000
   3 P    3.230000
   3 P    2.060000
   3 D    7.200000
   3 D    4.400000
   3 D    2.690000
   3 D    1.640000
   4 F    5.400000
   4 F    3.550000
   5 G    4.500000

 Atom Type    3  (H)
 ==============

 Valence Basis Sets:   4
 -----------------------
   1 S    0.690000
   1 S    0.920000
   1 S    1.580000
   2 P    1.250000

 Charge Fitting Sets (for the computation of the Coulomb Potential):  11
 -----------------------------------------------------------------------
   1 S    3.160000
   1 S    2.090000
   1 S    1.380000
   2 S    1.500000
   2 P    4.000000
   2 P    2.650000
   2 P    1.750000
   3 D    4.000000
   3 D    2.500000
   4 F    3.000000
   5 G    4.000000


 BAS: List of all Elementary Cartesian Basis Functions
 =====================================================

 The numbering in the list below (to the right of the function characteristics) is referred
 to in print-outs of MO eigenvectors and Mulliken populations in the BAS representation
 (as contrasted to the SFO representation).

 Notes:
 1. The functions are characterized by a polynomial prefactor (powers of x,y,z and r) and
    an exponential decay factor alpha.
 2. Since the basis sets are specific for an atom TYPE, the individual functions occur on
    all atoms of that type.
 3. The word 'Core' in the left margin signals that it is a Core Function (CF) : not a
    degree of freedom in the valence set, but only used to ensure orthogonalization of
    the other valence basis functions on the frozen Core Orbitals.


 (power of) X  Y  Z  R     Alpha  on Atom
            ==========     =====     ==========

 N                                    1    2    3    4
                                  ---------------------------------------------------------------------------
            0  0  0  0     8.740      1   21   41   61
            0  0  0  0     5.900      2   22   42   62
            0  0  0  1     5.150      3   23   43   63
            0  0  0  1     2.500      4   24   44   64
            0  0  0  1     1.500      5   25   45   65
            1  0  0  0     3.680      6   26   46   66
            0  1  0  0     3.680      7   27   47   67
            0  0  1  0     3.680      8   28   48   68
            1  0  0  0     1.880      9   29   49   69
            0  1  0  0     1.880     10   30   50   70
            0  0  1  0     1.880     11   31   51   71
            1  0  0  0     1.000     12   32   52   72
            0  1  0  0     1.000     13   33   53   73
            0  0  1  0     1.000     14   34   54   74
            2  0  0  0     2.200     15   35   55   75
            1  1  0  0     2.200     16   36   56   76
            1  0  1  0     2.200     17   37   57   77
            0  2  0  0     2.200     18   38   58   78
            0  1  1  0     2.200     19   39   59   79
            0  0  2  0     2.200     20   40   60   80

 C                                    5    6    7    8    9
                                  ---------------------------------------------------------------------------
            0  0  0  0     7.680     81  101  121  141  161
            0  0  0  0     5.000     82  102  122  142  162
            0  0  0  1     1.280     83  103  123  143  163
            0  0  0  1     2.100     84  104  124  144  164
            0  0  0  1     4.600     85  105  125  145  165
            1  0  0  0     0.820     86  106  126  146  166
            0  1  0  0     0.820     87  107  127  147  167
            0  0  1  0     0.820     88  108  128  148  168
            1  0  0  0     1.480     89  109  129  149  169
            0  1  0  0     1.480     90  110  130  150  170
            0  0  1  0     1.480     91  111  131  151  171
            1  0  0  0     2.940     92  112  132  152  172
            0  1  0  0     2.940     93  113  133  153  173
            0  0  1  0     2.940     94  114  134  154  174
            2  0  0  0     2.200     95  115  135  155  175
            1  1  0  0     2.200     96  116  136  156  176
            1  0  1  0     2.200     97  117  137  157  177
            0  2  0  0     2.200     98  118  138  158  178
            0  1  1  0     2.200     99  119  139  159  179
            0  0  2  0     2.200    100  120  140  160  180

 H                                   10   11   12   13   14   15   16   17   18   19   20   21
                                  ---------------------------------------------------------------------------
            0  0  0  0     0.690    181  187  193  199  205  211  217  223  229  235  241  247
            0  0  0  0     0.920    182  188  194  200  206  212  218  224  230  236  242  248
            0  0  0  0     1.580    183  189  195  201  207  213  219  225  231  237  243  249
            1  0  0  0     1.250    184  190  196  202  208  214  220  226  232  238  244  250
            0  1  0  0     1.250    185  191  197  203  209  215  221  227  233  239  245  251
            0  0  1  0     1.250    186  192  198  204  210  216  222  228  234  240  246  252

 Total number of charge fitting functions (nprimf)      1356
 Total number of Cartesian basis functions (naos)        252
 Total number of Cartesian core functions  (ncos)          0

1
 ***************************************************************************************************



                                              ***********************
                                              *  T E C H N I C A L  *
                                              ***********************
  



 =============================================================
 P A R A L L E L I Z A T I O N  and  V E C T O R I Z A T I O N
 =============================================================
  
 Nr of parallel processes:                                4
 Maximum vector length in NumInt loops:                 128



 =====================
 S C F   U P D A T E S
 =====================
  
 Max. nr. of cycles:                               300
 Convergence criterion:                              0.0000010000
   secondary criterion:                              0.0010000000

 Mix parameter (when DIIS does not apply):           0.2000000000
 Mixed ADIIS+SDIIS will be used                  
    Max number of expansion vectors:                10
    Pure ADIIS when Max([F,P]) is above              0.1000000000
    Pure SDIIS when Max([F,P]) is below              0.0010000000
 Automatic ElectronSmearing (in case of problematic SCF convergence) disabled



 =================
 P R E C I S I O N  ***  (General: NumInt, NeglectFunctionTails, ...)  ***
 =================
  

 NumInt:           Target precision:                 4.0000000000
 -------           Initial precision:                4.0000000000
                   Min. precision (optimization):    4.0000000000

 Neglect Functions:          Basis functions:        0.1000000000E-05
 ------------------          Fit functions:          0.1000000000E-05



 ===========================
 L I N E A R   S C A L I N G
 ===========================
  

 Cut-off radii density fit:                        0.1000000000E-07
 Overlap cut-off criterion AO matrix elements:     0.1000000000E-05
 Cut-offs for Coulomb potential and fitted density:0.1000000000E-07
 Cut-off criterion for Coulomb multipole terms:    0.1000000000E-07
 Progressive Convergence parameter:                 0.000000000    
1
 ***************************************************************************************************



                                            ***************************
                                            *  C O M P U T A T I O N  *
                                            ***************************
  

 Number of elements of the density matrix on this node (used, total):      8246     31878



 ===========================================
 Numerical Integration : Fuzzy Cells (Becke)
 ===========================================
  
 Becke grid quality: NORMAL         
  
 Lebedev angular grid order:             min:  11 max:  23
 Nr. of radial points:                   min:  46 max:  52

 Total nr. of points:     131211
 Nr. of blocks:             1026
 Block length:               128
 Nr. of dummy points:        117


 Test of Precision of the Numerical Integration Grid
 ===================================================

 Integral of the Total Core Density:                   0.00000000000000


 -------------------------------------------
  COSMO surface
  Area             =          557.734
  Volume           =         1088.443
  Number of Points =         1440
 -------------------------------------------



 ========================
 Density Fitting (zlmFit)
 ========================
  
 ZlmFit Fit Quality: NORMAL         
  
 Max L-expansion:                        min:   5 max:   6
 Nr. of radial interpolation points:     min:  36 max:  48



 ======================
 RI Hartree-Fock Scheme
 ======================
  
 Fit Set Quality     : NORMAL
 Threshold Quality   : NORMAL
 Integration Quality : NORMAL
 Fit Generation Method : AUTO
 Response Quality    : DEFAULT
 Is Range Separated  :  F
 
 RIHartreeFock Dependency: number of modified vectors:          16



 =====
 S C F  ***  ScaSCF  ***
 =====
  
 Initial density matrix is calculated as sum of fragments

 CYCLE    1
 SCF Error: norm([F,P])=      8.173235924956, max([F,P])=      1.271412836494
 orbitals (Q,E):
 ---------------
 A :26...45          ( 2.00    -0.5617)  ( 2.00    -0.5420)  ( 2.00    -0.5303)  ( 2.00    -0.5227)
                     ( 2.00    -0.5214)  ( 2.00    -0.5115)  ( 2.00    -0.4445)  ( 2.00    -0.4130)
                     ( 2.00    -0.3825)  ( 2.00    -0.3674)  ( 0.00    -0.0839)  ( 0.00    -0.0782)
                     ( 0.00    -0.0542)  ( 0.00    -0.0469)  ( 0.00    -0.0450)  ( 0.00    -0.0353)
                     ( 0.00    -0.0333)  ( 0.00    -0.0280)  ( 0.00    -0.0124)  ( 0.00    -0.0107)

 CYCLE    2
   MIX coefficients:  0.8000  0.2000
 SCF Error: norm([F,P])=      1.070483818641, max([F,P])=      0.180388459544
 orbitals (Q,E):
 ---------------
 A :26...36          ( 2.00    -0.5041)  ( 2.00    -0.4855)  ( 2.00    -0.4733)  ( 2.00    -0.4691)
                     ( 2.00    -0.4683)  ( 2.00    -0.4609)  ( 2.00    -0.3819)  ( 2.00    -0.3450)
                     ( 2.00    -0.3149)  ( 2.00    -0.3016)  ( 0.00    -0.0493)

 CYCLE    3
  SDIIS (wt  0.000): -1.1585  2.1585
 A-DIIS (wt  1.000):  0.0000  1.0000
  DIIS coefficients:  0.0000  1.0000
 SCF Error: norm([F,P])=      0.609619042439, max([F,P])=      0.096793516973
 orbitals (Q,E):
 ---------------
 A :26...36          ( 2.00    -0.3316)  ( 2.00    -0.3181)  ( 2.00    -0.3126)  ( 2.00    -0.3016)
                     ( 2.00    -0.2993)  ( 2.00    -0.2868)  ( 2.00    -0.2009)  ( 2.00    -0.1612)
                     ( 2.00    -0.1261)  ( 2.00    -0.1218)  ( 0.00     0.0303)

 CYCLE    4
  SDIIS (wt  0.000):  0.5372 -0.1511  0.6139
 A-DIIS (wt  1.000):  0.0000  0.6009  0.3991
  DIIS coefficients:  0.0000  0.6009  0.3991
 SCF Error: norm([F,P])=      0.797705297967, max([F,P])=      0.137971442971
 orbitals (Q,E):
 ---------------
 A :26...36          ( 2.00    -0.3964)  ( 2.00    -0.3814)  ( 2.00    -0.3687)  ( 2.00    -0.3632)
                     ( 2.00    -0.3615)  ( 2.00    -0.3591)  ( 2.00    -0.2800)  ( 2.00    -0.2461)
                     ( 2.00    -0.2126)  ( 2.00    -0.2043)  ( 0.00     0.0152)

 CYCLE    5
  SDIIS (wt  0.896): -0.0744  0.2851  0.1008  0.6886
 A-DIIS (wt  0.104):  0.0000  0.0000  0.0000  1.0000
  DIIS coefficients: -0.0667  0.2554  0.0903  0.7210
 SCF Error: norm([F,P])=      0.085815620177, max([F,P])=      0.011296868626
 orbitals (Q,E):
 ---------------
 A :26...36          ( 2.00    -0.4017)  ( 2.00    -0.3859)  ( 2.00    -0.3757)  ( 2.00    -0.3697)
                     ( 2.00    -0.3663)  ( 2.00    -0.3649)  ( 2.00    -0.2830)  ( 2.00    -0.2479)
                     ( 2.00    -0.2162)  ( 2.00    -0.2059)  ( 0.00     0.0134)

 CYCLE    6
  SDIIS (wt  0.959):  0.0278 -0.0009  0.0273  0.2428  0.7030
 A-DIIS (wt  0.041):  0.0000  0.0000  0.0000  0.0000  1.0000
  DIIS coefficients:  0.0266 -0.0008  0.0262  0.2329  0.7151
 SCF Error: norm([F,P])=      0.026845686662, max([F,P])=      0.005038142346
 orbitals (Q,E):
 ---------------
 A :26...36          ( 2.00    -0.4013)  ( 2.00    -0.3861)  ( 2.00    -0.3750)  ( 2.00    -0.3693)
                     ( 2.00    -0.3665)  ( 2.00    -0.3647)  ( 2.00    -0.2837)  ( 2.00    -0.2488)
                     ( 2.00    -0.2167)  ( 2.00    -0.2077)  ( 0.00     0.0134)

 CYCLE    7
  SDIIS (wt  0.981):  0.0036 -0.0030 -0.0015  0.0788  0.4120  0.5101
 A-DIIS (wt  0.019):  0.0000  0.0000  0.0000  0.0000  0.1970  0.8030
  DIIS coefficients:  0.0035 -0.0030 -0.0015  0.0773  0.4079  0.5157
 SCF Error: norm([F,P])=      0.013908903471, max([F,P])=      0.002869289667
 orbitals (Q,E):
 ---------------
 A :26...36          ( 2.00    -0.4017)  ( 2.00    -0.3863)  ( 2.00    -0.3754)  ( 2.00    -0.3696)
                     ( 2.00    -0.3666)  ( 2.00    -0.3650)  ( 2.00    -0.2837)  ( 2.00    -0.2490)
                     ( 2.00    -0.2169)  ( 2.00    -0.2073)  ( 0.00     0.0133)

 CYCLE    8
  SDIIS (wt  1.000): -0.0001 -0.0013 -0.0025  0.0231  0.1543  0.2503  0.5764
  DIIS coefficients: -0.0001 -0.0013 -0.0025  0.0231  0.1543  0.2503  0.5764
 SCF Error: norm([F,P])=      0.002540759094, max([F,P])=      0.000461728271
 orbitals (Q,E):
 ---------------
 A :26...36          ( 2.00    -0.4017)  ( 2.00    -0.3864)  ( 2.00    -0.3755)  ( 2.00    -0.3697)
                     ( 2.00    -0.3667)  ( 2.00    -0.3650)  ( 2.00    -0.2837)  ( 2.00    -0.2489)
                     ( 2.00    -0.2168)  ( 2.00    -0.2074)  ( 0.00     0.0133)

 CYCLE    9
  SDIIS (wt  1.000):  0.0003 -0.0011 -0.0005  0.0003  0.0177  0.0523  0.2743  0.6568
  DIIS coefficients:  0.0003 -0.0011 -0.0005  0.0003  0.0177  0.0523  0.2743  0.6568
 SCF Error: norm([F,P])=      0.000758549970, max([F,P])=      0.000134982434
 orbitals (Q,E):
 ---------------
 A :26...36          ( 2.00    -0.4017)  ( 2.00    -0.3863)  ( 2.00    -0.3754)  ( 2.00    -0.3697)
                     ( 2.00    -0.3667)  ( 2.00    -0.3650)  ( 2.00    -0.2838)  ( 2.00    -0.2489)
                     ( 2.00    -0.2169)  ( 2.00    -0.2074)  ( 0.00     0.0133)

 CYCLE   10
  SDIIS (wt  1.000):  0.0002 -0.0004 -0.0000 -0.0008 -0.0003  0.0061  0.0550  0.1844  0.7560
  DIIS coefficients:  0.0002 -0.0004 -0.0000 -0.0008 -0.0003  0.0061  0.0550  0.1844  0.7560
 SCF Error: norm([F,P])=      0.000099615193, max([F,P])=      0.000017109840
 orbitals (Q,E):
 ---------------
 A :26...36          ( 2.00    -0.4017)  ( 2.00    -0.3863)  ( 2.00    -0.3754)  ( 2.00    -0.3697)
                     ( 2.00    -0.3667)  ( 2.00    -0.3650)  ( 2.00    -0.2837)  ( 2.00    -0.2490)
                     ( 2.00    -0.2169)  ( 2.00    -0.2074)  ( 0.00     0.0133)

 CYCLE   11
  SDIIS (wt  1.000):  0.0000 -0.0001  0.0000 -0.0005 -0.0015 -0.0001  0.0130  0.0621  0.4529  0.4741
  DIIS coefficients:  0.0000 -0.0001  0.0000 -0.0005 -0.0015 -0.0001  0.0130  0.0621  0.4529  0.4741
 SCF Error: norm([F,P])=      0.000071532801, max([F,P])=      0.000014121972
 orbitals (Q,E):
 ---------------
 A :26...36          ( 2.00    -0.4017)  ( 2.00    -0.3863)  ( 2.00    -0.3754)  ( 2.00    -0.3697)
                     ( 2.00    -0.3667)  ( 2.00    -0.3650)  ( 2.00    -0.2837)  ( 2.00    -0.2489)
                     ( 2.00    -0.2169)  ( 2.00    -0.2074)  ( 0.00     0.0133)

 CYCLE   12
  SDIIS (wt  1.000):  0.0000  0.0000 -0.0001 -0.0004 -0.0007 -0.0019 -0.0003  0.0677  0.1489  0.7866
  DIIS coefficients:  0.0000  0.0000 -0.0001 -0.0004 -0.0007 -0.0019 -0.0003  0.0677  0.1489  0.7866
 SCF Error: norm([F,P])=      0.000009443539, max([F,P])=      0.000001844341
 orbitals (Q,E):
 ---------------
 A :26...36          ( 2.00    -0.4017)  ( 2.00    -0.3863)  ( 2.00    -0.3754)  ( 2.00    -0.3697)
                     ( 2.00    -0.3667)  ( 2.00    -0.3650)  ( 2.00    -0.2837)  ( 2.00    -0.2489)
                     ( 2.00    -0.2169)  ( 2.00    -0.2074)  ( 0.00     0.0133)

 CYCLE   13
  SDIIS (wt  1.000):  0.0000 -0.0000 -0.0000 -0.0001 -0.0008 -0.0023 -0.0003  0.0198  0.2311  0.7526
  DIIS coefficients:  0.0000 -0.0000 -0.0000 -0.0001 -0.0008 -0.0023 -0.0003  0.0198  0.2311  0.7526
 SCF Error: norm([F,P])=      0.000002134407, max([F,P])=      0.000000295474
 orbitals (Q,E):
 ---------------
 A :26...36          ( 2.00    -0.4017)  ( 2.00    -0.3863)  ( 2.00    -0.3754)  ( 2.00    -0.3697)
                     ( 2.00    -0.3667)  ( 2.00    -0.3650)  ( 2.00    -0.2837)  ( 2.00    -0.2489)
                     ( 2.00    -0.2169)  ( 2.00    -0.2074)  ( 0.00     0.0133)

 SCF CONVERGED
 cosmo_calcen: 0.5 (esolb+esolc) (Hartrees) =   -0.015427

 Solvation energy (screening term,uncorrected) =     -9.680826 kcal/mol

 Solvation energy (dispersion and cavitation terms) =      1.042920 kcal/mol
 Solvation Energy Contributions (Hartrees)
          esola   esolb+esolc
     0.01542738   -0.03085475
 esol last cycle   -0.01542738

 CYCLE   14
1
 ***************************************************************************************************



                                                *******************
                                                *  R E S U L T S  *
                                                *******************
  
  
 Hartree-Fock exchange energy:   -56.6370505443029     
 *** Using FIT density in Focky
  SDIIS (wt  1.000): -0.0000 -0.0000 -0.0000 -0.0003 -0.0011 -0.0027  0.0026  0.0677  0.3492  0.5846
  DIIS coefficients: -0.0000 -0.0000 -0.0000 -0.0003 -0.0011 -0.0027  0.0026  0.0677  0.3492  0.5846
 SCF Error: norm([F,P])=      0.000000903084, max([F,P])=      0.000000154549

 Orbital Energies, per Irrep and Spin:
 ======================================
                        Occup              E (au)              E (eV)       Diff (eV) with prev. cycle
                        -----      --------------------        ------       --------------------------
 A
              26        2.000     -0.40171721187993E+00       -10.931              -6.18E-07
              27        2.000     -0.38634551034873E+00       -10.513               6.61E-07
              28        2.000     -0.37543807999809E+00       -10.216              -1.07E-06
              29        2.000     -0.36965886743790E+00       -10.059               4.83E-07
              30        2.000     -0.36667769812500E+00        -9.978               6.84E-07
              31        2.000     -0.36500039529900E+00        -9.932              -7.21E-07
              32        2.000     -0.28374933274123E+00        -7.721              -3.01E-07
              33        2.000     -0.24894716912558E+00        -6.774              -6.31E-07
              34        2.000     -0.21685340541247E+00        -5.901              -8.77E-08
              35        2.000     -0.20741600488608E+00        -5.644               1.36E-07
              36        0.000      0.13325774162588E-01         0.363
              37        0.000      0.35232032474571E-01         0.959
              38        0.000      0.38120059043887E-01         1.037
              39        0.000      0.44051300510711E-01         1.199
              40        0.000      0.59639997583267E-01         1.623
              41        0.000      0.71154585312341E-01         1.936
              42        0.000      0.73246698616321E-01         1.993
              43        0.000      0.76132162090982E-01         2.072
              44        0.000      0.81382903604156E-01         2.215
              45        0.000      0.11168865334271E+00         3.039
  
 HOMO :       35 A                -0.20741600488608E+00
 LUMO :       36 A                 0.13325774162588E-01
  
 cosmo_calcen: 0.5 (esolb+esolc) (Hartrees) =   -0.015427

 Solvation energy (screening term,uncorrected) =     -9.680830 kcal/mol

 Solvation energy (dispersion and cavitation terms) =      1.042920 kcal/mol
 Solvation Energy Contributions (Hartrees)
          esola   esolb+esolc
     0.01542738   -0.03085477
 esol last cycle   -0.01542738


 All Electron Calculation, thus no Orbital Energies of the Core Orbitals are calculated


 Fit test: (difference of exact and fit density, squared integrated, result summed over spins)
         Sum-of-Fragments:                             0.00000000041824
         Orthogonalized Fragments:                     0.00020974362394
         SCF:                                          0.00104486849741



 ==========================
 Electron Density at Nuclei
 ==========================
  
 The electron density is calculated at points on a small sphere around the center of a nucleus.
 The printed electron density is the average electron density on these points.
 The radius of the sphere is the printed approximate finite nuclear radius.

         Atom        Nuclear Radius (Angstrom)             Electron Density (a.u.)
         ----        -------------------------             -----------------------
     1)   N                 0.0000333706                              204.08479
     2)   N                 0.0000333706                              204.31931
     3)   N                 0.0000333706                              204.09021
     4)   N                 0.0000333706                              204.08725
     5)   C                 0.0000320678                              126.03707
     6)   H                 0.0000181514                                0.51798
     7)   C                 0.0000320678                              126.01811
     8)   C                 0.0000320678                              126.02721
     9)   C                 0.0000320678                              126.03847
    10)   C                 0.0000320678                              126.01874
    11)   H                 0.0000181514                                0.52202
    12)   H                 0.0000181514                                0.51758
    13)   H                 0.0000181514                                0.50584
    14)   H                 0.0000181514                                0.50488
    15)   H                 0.0000181514                                0.51377
    16)   H                 0.0000181514                                0.51802
    17)   H                 0.0000181514                                0.51356
    18)   H                 0.0000181514                                0.51583
    19)   H                 0.0000181514                                0.51755
    20)   H                 0.0000181514                                0.52217
    21)   H                 0.0000181514                                0.51388



 =======================================
 M U L L I K E N   P O P U L A T I O N S
 =======================================
  
 The survey below gives for each atom:
 a) the total charge (Z minus electrons)
 b) the net spin polarization (nr of electrons spin-A minus spin-B)
 c) for each spin the atomic electron valence density (integrated) per L-value.

 Atom              Charge    Spin density          S         P         D         F
 ----              ------    ------------       ------    ------    ------    ------
 1 N              -0.4467                       3.4923    3.8732    0.0812    0.0000
 2 N              -0.4730                       3.5354    3.8870    0.0506    0.0000
 3 N              -0.3588                       3.4343    3.8631    0.0614    0.0000
 4 N              -0.4457                       3.4924    3.8719    0.0814    0.0000
 5 C               0.6672                       2.8331    2.4025    0.0972    0.0000
 6 H              -0.1405                       1.0756    0.0649    0.0000    0.0000
 7 C               0.6420                       2.8161    2.4398    0.1021    0.0000
 8 C               0.6274                       2.8172    2.4545    0.1009    0.0000
 9 C               0.6658                       2.8347    2.4025    0.0969    0.0000
 10 C              0.6413                       2.8160    2.4406    0.1021    0.0000
 11 H             -0.1580                       1.0906    0.0675    0.0000    0.0000
 12 H             -0.1690                       1.1005    0.0685    0.0000    0.0000
 13 H              0.0677                       0.8388    0.0934    0.0000    0.0000
 14 H              0.0373                       0.8628    0.1000    0.0000    0.0000
 15 H             -0.1765                       1.1084    0.0681    0.0000    0.0000
 16 H             -0.1394                       1.0746    0.0649    0.0000    0.0000
 17 H             -0.1781                       1.1091    0.0690    0.0000    0.0000
 18 H             -0.1622                       1.0936    0.0686    0.0000    0.0000
 19 H             -0.1683                       1.0997    0.0686    0.0000    0.0000
 20 H             -0.1570                       1.0895    0.0675    0.0000    0.0000
 21 H             -0.1755                       1.1074    0.0681    0.0000    0.0000

 Populations of individual BAS functions
 ----------------------------------------
 1 N            0.5197  1.4754 -0.0466  0.9417  0.6019  0.1659  0.1931  0.1812  0.7831  0.8321
                0.8173  0.2226  0.3820  0.2958  0.0202  0.0145  0.0143  0.0063  0.0112  0.0147
 2 N            0.5186  1.4768 -0.0477  0.9706  0.6170  0.1739  0.1912  0.1635  0.7707  0.8190
                0.7730  0.3420  0.3835  0.2703  0.0090  0.0090  0.0096  0.0015  0.0143  0.0073
 3 N            0.5195  1.4764 -0.0512  0.9691  0.5204  0.1595  0.1903  0.1894  0.8059  0.8458
                0.8687  0.1545  0.3736  0.2755  0.0204  0.0119  0.0122  0.0051  0.0059  0.0060
 4 N            0.5197  1.4755 -0.0466  0.9420  0.6018  0.2245  0.1574  0.1583  0.8767  0.7728
                0.7838  0.5816  0.1689  0.1479 -0.0138  0.0153  0.0114  0.0205  0.0231  0.0249
 5 C            0.4794  1.5290 -0.0633  0.9577 -0.0697 -0.1739 -0.1771 -0.1316  0.8533  0.8305
                0.6935  0.1811  0.1756  0.1512  0.0144  0.0073  0.0182  0.0126  0.0221  0.0226
 7 C            0.4794  1.5290 -0.0792  0.9565 -0.0696 -0.1911 -0.1031 -0.1631  0.8463  0.6797
                0.8598  0.1800  0.1484  0.1830  0.0149  0.0186  0.0067  0.0267  0.0193  0.0158
 8 C            0.4793  1.5287 -0.0714  0.9495 -0.0688 -0.1309 -0.1427 -0.1612  0.7208  0.8058
                0.8474  0.1580  0.1747  0.1827  0.0180  0.0267  0.0156  0.0123  0.0137  0.0146
 9 C            0.4794  1.5290 -0.0613  0.9573 -0.0697 -0.1499 -0.1750 -0.1567  0.7562  0.8746
                0.7454  0.1534  0.1872  0.1672  0.0065  0.0201  0.0239  0.0083  0.0194  0.0188
 10 C           0.4794  1.5290 -0.0791  0.9563 -0.0696 -0.1412 -0.1607 -0.1543  0.7228  0.7749
                0.8875  0.1558  0.1655  0.1902  0.0208  0.0259  0.0183  0.0131  0.0145  0.0096
 6 H            0.1293  0.6194  0.3269  0.0143  0.0146  0.0360
 11 H           0.1658  0.5955  0.3293  0.0230  0.0301  0.0143
 12 H           0.1563  0.6219  0.3223  0.0361  0.0182  0.0142
 13 H           0.0173  0.4604  0.3611  0.0287  0.0367  0.0280
 14 H           0.0259  0.4814  0.3554  0.0256  0.0333  0.0411
 15 H           0.1676  0.6203  0.3204  0.0365  0.0113  0.0203
 16 H           0.1281  0.6195  0.3270  0.0184  0.0119  0.0346
 17 H           0.1757  0.6101  0.3233  0.0169  0.0313  0.0208
 18 H           0.1556  0.6129  0.3252  0.0131  0.0190  0.0365
 19 H           0.1564  0.6204  0.3229  0.0162  0.0321  0.0204
 20 H           0.1640  0.5961  0.3294  0.0211  0.0322  0.0143
 21 H           0.1668  0.6199  0.3208  0.0139  0.0254  0.0288

 Gross Charges per Atom (Z minus electrons)
 ==========================================
            -0.4467   -0.4730   -0.3588   -0.4457    0.6672   -0.1405    0.6420    0.6274    0.6658    0.6413
            -0.1580   -0.1690    0.0677    0.0373   -0.1765   -0.1394   -0.1781   -0.1622   -0.1683   -0.1570
            -0.1755
 Net Total: -0.00000000


 Atom-Atom Population Matrix (off-diagonal elements not doubled)
 ===============================================================

     1 :     6.8728
     2 :    -0.0484    6.7548
     3 :    -0.0531    0.0076    6.5279
     4 :    -0.0663   -0.0480   -0.0536    6.8715
     5 :     0.3725    0.3486   -0.0026   -0.0161    4.0246
     6 :    -0.0102   -0.0016   -0.0735   -0.0716   -0.0020    0.9554
     7 :     0.3663   -0.0029    0.3737   -0.0233   -0.0281   -0.0093    4.0399
     8 :     0.3741   -0.0068   -0.0190    0.3737   -0.0334   -0.0049   -0.0338    4.0547
     9 :    -0.0168    0.3483   -0.0025    0.3725   -0.0206   -0.0038    0.0020   -0.0338    4.0276
    10 :    -0.0234   -0.0034    0.3739    0.3663    0.0020    0.3820   -0.0269   -0.0337   -0.0288    4.0406
    11 :    -0.0429   -0.0954   -0.0045   -0.0040    0.3724   -0.0012   -0.0013   -0.0104   -0.0040   -0.0011
             1.0425
[...]
       5.299  0.00    53 A         13.45%     1 P:x            -5.110  0.67     9 C
                                    9.12%     1 P:x            -7.335  1.00     2 N
                                    8.31%     1 P:x            -7.335  1.00     3 N
                                    7.44%     1 P:x            -5.110  0.67     6 C
                                   -7.35%     2 P:x             8.457  0.00     3 N
                                    6.88%     1 P:z            -5.110  0.67     6 C
                                    6.13%     1 P:z            -7.335  1.00     4 N
                                    6.05%     1 P:x            -5.110  0.67     7 C
                                    4.87%     2 P:y             5.204  0.00     6 C
                                    4.78%     1 P:x            -5.110  0.67     8 C
                                    4.77%     1 P:x            -5.110  0.67     5 C
                                    4.64%     2 P:z             5.204  0.00     5 C
                                    4.56%     1 P:y            -5.110  0.67     5 C
                                    4.09%     1 P:y            -5.110  0.67     6 C
                                   -3.98%     2 P:x             5.204  0.00     6 C
                                    3.82%     1 P:y            -7.335  1.00     2 N
                                    3.71%     1 P:z            -7.335  1.00     1 N
                                    3.69%     1 P:y            -5.110  0.67     9 C
                                    3.68%     1 P:y            -7.335  1.00     3 N
                                    3.35%     2 S             -15.345  2.00     8 C
                                   -3.33%     2 P:y             8.457  0.00     3 N
                                    3.27%     1 S              -6.641  1.00    21 H
                                    3.19%     1 S              -6.641  1.00    15 H
                                    3.13%     2 S             -15.345  2.00     5 C
                                   -3.10%     2 P:z             8.457  0.00     4 N
                                    2.82%     2 P:x             5.204  0.00     9 C
                                    2.68%     1 P:y            -5.110  0.67     7 C
                                   -2.64%     2 P:x             5.204  0.00     7 C
                                    2.55%     1 S              -6.641  1.00    12 H
                                    2.50%     1 P:z            -5.110  0.67     8 C
                                    2.50%     1 S              -6.641  1.00    19 H
                                    2.33%     1 S              -6.641  1.00    16 H
                                   -2.33%     2 P:y             5.204  0.00     9 C
                                   -2.13%     2 P:x             8.457  0.00     1 N
                                    1.99%     1 S              -6.641  1.00    10 H
                                   -1.85%     2 P:y             5.204  0.00     5 C
                                    1.72%     2 S             -15.345  2.00     6 C
                                   -1.66%     2 P:x             5.204  0.00     5 C
                                    1.53%     2 S             -15.345  2.00     9 C
                                    1.52%     1 P:y            -7.335  1.00     1 N
                                   -1.39%     2 S               2.836  0.00    21 H
                                   -1.36%     3 S              10.943  0.00     8 C
                                   -1.27%     2 S               2.836  0.00    15 H
                                   -1.26%     3 S              10.943  0.00     5 C
                                   -1.20%     2 P:y             5.204  0.00     7 C
                                   -1.12%     2 P:x             8.457  0.00     4 N
                                   -1.11%     2 P:y             8.457  0.00     1 N
                                   -1.10%     2 S               2.836  0.00    16 H
                                    1.04%     1 P:z            -7.335  1.00     2 N
       5.781  0.00    54 A         11.85%     1 P:z            -5.110  0.67     7 C
                                    9.67%     1 S              -6.641  1.00    18 H
                                    7.90%     2 P:z             5.204  0.00     6 C
                                    7.72%     2 P:z             5.204  0.00     9 C
                                    7.04%     1 P:z            -5.110  0.67     6 C
                                    6.69%     1 P:x            -5.110  0.67     7 C
                                    6.55%     1 S              -6.641  1.00    13 H
                                    6.40%     1 P:x            -7.335  1.00     1 N
                                   -6.20%     2 P:x             8.457  0.00     1 N
                                   -5.65%     2 S               2.836  0.00    18 H
                                    4.96%     2 P:y             5.204  0.00     5 C
                                   -4.55%     2 P:z             8.457  0.00     3 N
                                    4.46%     1 P:y            -5.110  0.67     7 C
                                    4.44%     1 P:z            -5.110  0.67     9 C
                                    4.38%     1 P:z            -5.110  0.67     8 C
                                    4.37%     1 P:z            -5.110  0.67     5 C
                                    4.09%     1 P:y            -5.110  0.67     5 C
                                   -3.76%     2 P:z             5.204  0.00     7 C
                                    3.75%     1 P:z            -7.335  1.00     4 N
                                    3.66%     2 P:y             5.204  0.00     8 C
                                   -3.64%     2 P:x             5.204  0.00     7 C
                                   -3.58%     2 P:y             8.457  0.00     4 N
                                   -3.54%     2 P:y             5.204  0.00     7 C
                                    3.21%     1 S              -6.641  1.00    17 H
                                    3.15%     1 P:y            -5.110  0.67     8 C
                                   -3.00%     2 P:z             8.457  0.00     4 N
                                    2.94%     1 S              -6.641  1.00    10 H
                                    2.92%     1 S              -6.641  1.00    16 H
                                    2.62%     1 P:y            -7.335  1.00     4 N
                                    2.49%     1 P:y            -5.110  0.67     9 C
                                    2.38%     2 P:y             5.204  0.00     9 C
                                    2.08%     2 S               2.836  0.00    14 H
                                    2.06%     2 P:y             5.204  0.00     6 C
                                    1.66%     1 P:z            11.865  0.00    17 H
                                   -1.65%     2 S               2.836  0.00    17 H
                                    1.62%     1 P:z            -7.335  1.00     2 N
                                    1.51%     2 P:z             5.204  0.00     8 C
                                    1.47%     2 P:z             5.204  0.00     5 C
                                   -1.44%     2 S               2.836  0.00    10 H
                                   -1.43%     2 S               2.836  0.00    16 H
                                   -1.42%     2 S               2.836  0.00    13 H
                                    1.37%     1 S              -6.641  1.00    11 H
                                    1.31%     1 P:y            -7.335  1.00     3 N
                                    1.28%     2 P:x             5.204  0.00     8 C
                                    1.27%     1 P:z            -7.335  1.00     1 N
                                   -1.27%     2 P:z             8.457  0.00     1 N
                                   -1.25%     2 P:y             8.457  0.00     3 N
                                   -1.21%     3 S              10.943  0.00     7 C
                                   -1.18%     3 S              42.568  0.00    18 H
                                    1.17%     2 P:y             8.457  0.00     2 N
                                    1.17%     1 S              -6.641  1.00    20 H
                                    1.13%     1 P:x            -5.110  0.67     9 C
                                    1.09%     2 P:z             8.457  0.00     2 N
                                    1.04%     1 P:y            11.865  0.00    14 H
                                    1.04%     1 P:z            -7.335  1.00     3 N
                                   -1.02%     3 S              42.568  0.00    13 H



 =======================================================================
 Electrostatic potential at the Nuclei due to electrons and other nuclei
 =======================================================================
  
         Atom                  Potential
         ----                  ---------
     1)   N                  18.38945265
     2)   N                  18.41353976
     3)   N                  18.40313277
     4)   N                  18.38927724
     5)   C                  14.71452814
     6)   H                   1.12234715
     7)   C                  14.71483103
     8)   C                  14.71059969
     9)   C                  14.71437956
    10)   C                  14.71476501
    11)   H                   1.11723353
    12)   H                   1.11769564
    13)   H                   1.06462398
    14)   H                   1.06098542
    15)   H                   1.10641705
    16)   H                   1.12287642
    17)   H                   1.09857453
    18)   H                   1.10392982
    19)   H                   1.11700469
    20)   H                   1.11728812
    21)   H                   1.10634345
 Mulliken charges used for AMS results%charges...


    =====================
     CALCULATION RESULTS
    =====================

Energy (hartree)            -5.06138631


--------------
Atomic charges
--------------
  Index   Atom    Charge
      1      N   -0.4467
      2      N   -0.4730
      3      N   -0.3588
      4      N   -0.4457
      5      C    0.6672
      6      H   -0.1405
      7      C    0.6420
      8      C    0.6274
      9      C    0.6658
     10      C    0.6413
     11      H   -0.1580
     12      H   -0.1690
     13      H    0.0677
     14      H    0.0373
     15      H   -0.1765
     16      H   -0.1394
     17      H   -0.1781
     18      H   -0.1622
     19      H   -0.1683
     20      H   -0.1570
     21      H   -0.1755


Dipole moment vector    (Debye):    -0.67726618   -1.25311555    0.50852860
              magnitude (Debye):     1.51247790


-----------------------
Molecular orbitals info
-----------------------
n orbitals:              243
n spin:                    1

Note: only printing virtual orbitals with
      energy smaller than HOMO + 100. eV

HOMO (eV):              -5.6441
LUMO (eV):               0.3626
HOMO-LUMO gap (eV):      6.0067

   Index   Energy (eV)    Occupation
     194       94.2291         0.000       
     193       91.3256         0.000       
     192       90.4434         0.000       
     191       84.9416         0.000       
     190       84.5691         0.000       
     189       83.8517         0.000       
     188       82.3541         0.000       
     187       81.9275         0.000       
     186       81.4228         0.000       
     185       79.6070         0.000       
     184       78.3720         0.000       
     183       77.2649         0.000       
     182       76.1902         0.000       
     181       75.4412         0.000       
     180       74.8376         0.000       
     179       73.7891         0.000       
     178       73.3053         0.000       
     177       71.9891         0.000       
     176       70.7781         0.000       
     175       69.4782         0.000       
     174       69.3605         0.000       
     173       67.8449         0.000       
     172       67.0841         0.000       
     171       66.8603         0.000       
     170       65.3663         0.000       
     169       64.8573         0.000       
     168       63.9794         0.000       
     167       63.9541         0.000       
     166       63.0301         0.000       
     165       62.6025         0.000       
     164       61.9664         0.000       
     163       60.7043         0.000       
     162       60.1434         0.000       
     161       58.9504         0.000       
     160       58.6471         0.000       
     159       58.1615         0.000       
     158       57.6698         0.000       
     157       54.7157         0.000       
     156       54.3189         0.000       
     155       52.9893         0.000       
     154       52.5369         0.000       
     153       52.1537         0.000       
     152       51.7116         0.000       
     151       51.5035         0.000       
     150       50.8547         0.000       
     149       50.0906         0.000       
     148       49.6053         0.000       
     147       48.8305         0.000       
     146       48.4026         0.000       
     145       48.1001         0.000       
     144       48.0319         0.000       
     143       47.3606         0.000       
     142       46.7598         0.000       
     141       46.2784         0.000       
     140       45.0498         0.000       
     139       44.7059         0.000       
     138       44.2628         0.000       
     137       42.4352         0.000       
     136       42.0549         0.000       
     135       41.9430         0.000       
     134       40.9534         0.000       
     133       39.5121         0.000       
     132       39.3222         0.000       
     131       39.0765         0.000       
     130       38.9209         0.000       
     129       38.6895         0.000       
     128       37.6470         0.000       
     127       37.0550         0.000       
     126       37.0269         0.000       
     125       36.5913         0.000       
     124       36.4511         0.000       
     123       36.2460         0.000       
     122       35.6749         0.000       
     121       34.9668         0.000       
     120       34.4310         0.000       
     119       33.7422         0.000       
     118       33.5953         0.000       
     117       32.9363         0.000       
     116       32.8642         0.000       
     115       32.3247         0.000       
     114       31.9847         0.000       
     113       30.9626         0.000       
     112       30.6806         0.000       
     111       30.0540         0.000       
     110       29.6395         0.000       
     109       29.0788         0.000       
     108       28.7545         0.000       
     107       27.3561         0.000       
     106       27.2460         0.000       
     105       26.8289         0.000       
     104       26.7649         0.000       
     103       26.7118         0.000       
     102       26.3842         0.000       
     101       25.7797         0.000       
     100       25.6823         0.000       
      99       23.3619         0.000       
      98       23.3313         0.000       
      97       21.8828         0.000       
      96       21.8091         0.000       
      95       21.0433         0.000       
      94       20.4315         0.000       
      93       19.3159         0.000       
      92       18.5572         0.000       
      91       17.5238         0.000       
      90       16.6501         0.000       
      89       16.0375         0.000       
      88       15.7222         0.000       
      87       15.4296         0.000       
      86       15.2044         0.000       
      85       14.7671         0.000       
      84       14.6317         0.000       
      83       14.4728         0.000       
      82       14.0061         0.000       
      81       13.5625         0.000       
      80       13.2853         0.000       
      79       13.0521         0.000       
      78       12.6028         0.000       
      77       12.3235         0.000       
      76       12.3058         0.000       
      75       12.1037         0.000       
      74       11.8409         0.000       
      73       11.6500         0.000       
      72       11.0223         0.000       
      71       10.1784         0.000       
      70       10.0293         0.000       
      69        9.8190         0.000       
      68        9.3230         0.000       
      67        9.1406         0.000       
      66        9.0233         0.000       
      65        8.8083         0.000       
      64        8.5739         0.000       
      63        8.4167         0.000       
      62        8.1195         0.000       
      61        7.7524         0.000       
      60        7.5626         0.000       
      59        7.2047         0.000       
      58        6.6832         0.000       
      57        6.5515         0.000       
      56        6.3893         0.000       
      55        6.0507         0.000       
      54        5.7806         0.000       
      53        5.2986         0.000       
      52        4.8420         0.000       
      51        4.6487         0.000       
      50        4.3088         0.000       
      49        3.9476         0.000       
      48        3.6150         0.000       
      47        3.3798         0.000       
      46        3.0807         0.000       
      45        3.0392         0.000       
      44        2.2145         0.000       
      43        2.0717         0.000       
      42        1.9931         0.000       
      41        1.9362         0.000       
      40        1.6229         0.000       
      39        1.1987         0.000       
      38        1.0373         0.000       
      37        0.9587         0.000       
      36        0.3626         0.000 < LUMO
      35       -5.6441         2.000 < HOMO
      34       -5.9009         2.000       
      33       -6.7742         2.000       
      32       -7.7212         2.000       
      31       -9.9322         2.000       
      30       -9.9778         2.000       
      29      -10.0589         2.000       
      28      -10.2162         2.000       
      27      -10.5130         2.000       
      26      -10.9313         2.000       
      25      -11.5453         2.000       
      24      -11.5520         2.000       
      23      -12.6664         2.000       
      22      -12.9534         2.000       
      21      -13.2649         2.000       
      20      -13.3980         2.000       
      19      -13.9749         2.000       
      18      -15.1456         2.000       
      17      -17.2304         2.000       
      16      -17.8450         2.000       
      15      -18.7019         2.000       
      14      -19.3885         2.000       
      13      -22.7841         2.000       
      12      -24.2252         2.000       
      11      -24.3239         2.000       
      10      -26.8023         2.000       
       9     -278.1203         2.000       
       8     -278.1238         2.000       
       7     -278.2165         2.000       
       6     -278.2180         2.000       
       5     -278.2346         2.000       
       4     -388.9613         2.000       
       3     -389.2300         2.000       
       2     -389.5073         2.000       
       1     -389.5125         2.000       

AMS application finished. Exiting.
NORMAL TERMINATION
     Total cpu time:      65.46
  Total system time:       2.76
 Total elapsed time:      70.96
