

 Parallel Execution: Process Information
 ==============================================================================
 Rank   Node Name                              NodeID   MyNodeRank  NodeMaster
    0   Amandas-Mac-mini.local                    0          0          0
    1   Amandas-Mac-mini.local                    0          1         -1
    2   Amandas-Mac-mini.local                    0          2         -1
    3   Amandas-Mac-mini.local                    0          3         -1
 ==============================================================================


May use up to 7812MB of RAM as shared memory on node 0

 *******************************************************************************
 *                                                                             *
 *  --------------------------------                                           *
 *   Amsterdam Modeling Suite (AMS)              2023.103                      *
 *  --------------------------------                                           *
 *                                               r114206 2023-08-04            *
 *                                                                             *
 *                                                                             *
 *                              =================                              *
 *                              |               |                              *
 *                              |     A M S     |                              *
 *                              |               |                              *
 *                              =================                              *
 *                                                                             *
 *                                                                             *
 *   Online information and documentation:  https://www.scm.com/support/       *
 *   E-mail:  support@scm.com   info@scm.com                                   *
 *                                                                             *
 *   Scientific publications using AMS results must be properly referenced     *
 *   See the User Manuals (or the web site) for recommended citations          *
 *   The terms and conditions of the End User License Agreement apply to       *
 *   the use of AMS, https://www.scm.com/license-terms/                        *
 *                                                                             *
 **********************  x86_64_darwin_intel / openmpi  ************************
 
 Licensed to: Dr. Amanda Morgenstern / University of Colorado / Colorado Springs / Colorado / USA 2024-12-20 19:21:38
 SCM User ID: u21568
  
 AMS 2023.103  RunTime: May23-2025 14:15:09  ShM Nodes: 1  Procs: 4

 AMS jobname: ams
 AMS jobid  : 1766556957

 Start   directory: /Users/amorgenstern/Library/CloudStorage/OneDrive-UniversityofColoradoColoradoSprings/Research/ESI_ISF_Gertner_Redmon_Cook/manuscript/Final_AMS_Calcs/HEXS/Intermediate2_stabilities/tmp.amorgenstern.56778.0.noindex/
 Results directory: /Users/amorgenstern/Library/CloudStorage/OneDrive-UniversityofColoradoColoradoSprings/Research/ESI_ISF_Gertner_Redmon_Cook/manuscript/Final_AMS_Calcs/HEXS/Intermediate2_stabilities/HMT_I2_B3LYP_TZP_gas_fragments_noH2O_v2.results/
 Scratch directory: /tmp/amstmp_ams_kid0.1766556957/


 Communication costs MPI_COMM_WORLD:      0.427 usec per message,   0.0037 usec per 8-byte item
 Communication costs for intra-node:      0.427 usec per message,   0.0036 usec per 8-byte item

 RNG seed: 20167430 482830077 845948148 305545108 951113406 -773240745 -613865691 1823494761



                      ************************************************************************
                      *  ADF 2023.103  RunTime: May23-2025 14:15:10  ShM Nodes: 1  Procs: 4  *
                      ************************************************************************
  

       ****************************
       * SINGLE POINT CALCULATION *
       ****************************
 
--------
Geometry
--------
Formula: C6H15N4O
Atoms
  Index Symbol   x (angstrom)   y (angstrom)   z (angstrom)
      1      N     1.06306621    -0.59609851    -0.41733093       region=rest adf.f=rest
      2      N    -0.65516787    -1.06362609     1.21670230       region=rest adf.f=rest
      3      N     1.12700121     0.96125804     1.50147096       region=rest adf.f=rest
      4      N    -0.74760287     0.95242424    -0.11184579       region=rest adf.f=rest
      5      C     0.29206202    -1.65658470     0.23805644       region=rest adf.f=rest
      6      C     1.98071935     1.77967042     2.40050160       region=CH2OH adf.f=CH2OH
      7      C     1.93194498     0.12875667     0.45166622       region=rest adf.f=rest
      8      C     0.14241659     0.32502151    -1.09981055       region=rest adf.f=rest
      9      C    -1.54781948    -0.08363680     0.54708513       region=rest adf.f=rest
     10      C     0.00491806     1.77558808     0.77800056       region=rest adf.f=rest
     11      H    -0.22016745    -2.21862586    -0.54985452       region=rest adf.f=rest
     12      H     0.96576337    -2.33514675     0.76058331       region=rest adf.f=rest
     13      H     1.32730570     2.25764742     3.13688842       region=CH2OH adf.f=CH2OH
     14      H     2.67196688     1.10172923     2.91074657       region=CH2OH adf.f=CH2OH
     15      H     2.57582966    -0.53643896     1.02593325       region=rest adf.f=rest
     16      H     2.53314686     0.84563466    -0.10125544       region=rest adf.f=rest
     17      H    -0.45404889    -0.22995694    -1.82105901       region=rest adf.f=rest
     18      H     0.70879137     1.09137998    -1.62852965       region=rest adf.f=rest
     19      H    -2.20077508     0.37079376     1.29196504       region=rest adf.f=rest
     20      H    -2.17292626    -0.54775188    -0.22281909       region=rest adf.f=rest
     21      H    -0.61968848     2.19242150     1.56741438       region=rest adf.f=rest
     22      H     0.51298163     2.57284993     0.24156799       region=rest adf.f=rest
     23      H    -1.20221536    -1.79226872     1.66802879       region=rest adf.f=rest
     24      O     2.63811371     2.70519466     1.57761166       region=CH2OH adf.f=CH2OH
     25      H     3.20139617     3.28248973     2.11217596       region=CH2OH adf.f=CH2OH
     26      H     0.60300102     0.24361254     2.03439702       region=rest adf.f=rest
 
Total System Charge             1.00000
Bonding info available!
 
 
----------------
ADF Engine Input
----------------
 
 Basis
 Type TZP
 Core None
 End
 Fragments
 CH2OH CH2OH.rkf
 rest rest.rkf
 End
 Save TAPE10
 XC
 Hybrid B3LYP
 End
 Relativity
 Level None
 End
 Symmetry NOSYM
 

 Title: *** (NO TITLE) ***

 *** adf ***



 ===========================
 A T T A C H E D   F I L E S
 ===========================
  



 ===============================
 M O D E L   P A R A M E T E R S
 ===============================
  
 DENSITY FUNCTIONAL POTENTIAL (scf)
    Hybrid:                            B3LYP                                   == Not Default ==

 SPIN  (restricted / unrestr.)
    Molecule:                          Restricted                               
    Fragments:                         Restricted                               

 OTHER ASPECTS
    Relativistic Corrections:          ---                                     == Not Default ==

    Nuclear Charge Density Model:      Point Charge Nuclei                      
    Core Treatment:                    Frozen Orbital(s)                        

    Hyperfine or Zeeman Interaction:   ---                                      


 Fragment File(s)
 ----------------
 rest:
         file : rest.rkf
         jobid: 315365115
         title: *** adf ***
 CH2OH:
         file : CH2OH.rkf
         jobid: 767749764
         title: *** adf ***



 ===============
 G E O M E T R Y  ***  3D  Molecule  ***
 ===============
  

 ATOMS
 =====                            X Y Z                    CHARGE
                                (Angstrom)             Nucl     +Core       At.Mass
                       --------------------------    ----------------       -------
    1  N               1.0631   -0.5961   -0.4173      7.00      7.00       14.0031
    2  N              -0.6552   -1.0636    1.2167      7.00      7.00       14.0031
    3  N               1.1270    0.9613    1.5015      7.00      7.00       14.0031
    4  N              -0.7476    0.9524   -0.1118      7.00      7.00       14.0031
    5  C               0.2921   -1.6566    0.2381      6.00      6.00       12.0000
    6  C               1.9807    1.7797    2.4005      6.00      6.00       12.0000
    7  C               1.9319    0.1288    0.4517      6.00      6.00       12.0000
    8  C               0.1424    0.3250   -1.0998      6.00      6.00       12.0000
    9  C              -1.5478   -0.0836    0.5471      6.00      6.00       12.0000
   10  C               0.0049    1.7756    0.7780      6.00      6.00       12.0000
   11  H              -0.2202   -2.2186   -0.5499      1.00      1.00        1.0078
   12  H               0.9658   -2.3351    0.7606      1.00      1.00        1.0078
   13  H               1.3273    2.2576    3.1369      1.00      1.00        1.0078
   14  H               2.6720    1.1017    2.9107      1.00      1.00        1.0078
   15  H               2.5758   -0.5364    1.0259      1.00      1.00        1.0078
   16  H               2.5331    0.8456   -0.1013      1.00      1.00        1.0078
   17  H              -0.4540   -0.2300   -1.8211      1.00      1.00        1.0078
   18  H               0.7088    1.0914   -1.6285      1.00      1.00        1.0078
   19  H              -2.2008    0.3708    1.2920      1.00      1.00        1.0078
   20  H              -2.1729   -0.5478   -0.2228      1.00      1.00        1.0078
   21  H              -0.6197    2.1924    1.5674      1.00      1.00        1.0078
   22  H               0.5130    2.5728    0.2416      1.00      1.00        1.0078
   23  H              -1.2022   -1.7923    1.6680      1.00      1.00        1.0078
   24  O               2.6381    2.7052    1.5776      8.00      8.00       15.9949
   25  H               3.2014    3.2825    2.1122      1.00      1.00        1.0078
   26  H               0.6030    0.2436    2.0344      1.00      1.00        1.0078


 FRAGMENTS
 =========                                     Atoms in this Fragment     Cart. coord.s (Angstrom)
                                               -------------------------------------------------------
    1  rest                                              1  N            1.0631   -0.5961   -0.4173
                                                         2  N           -0.6552   -1.0636    1.2167
                                                         3  N            1.1270    0.9613    1.5015
                                                         4  N           -0.7476    0.9524   -0.1118
                                                         5  C            0.2921   -1.6566    0.2381
                                                         7  C            1.9319    0.1288    0.4517
                                                         8  C            0.1424    0.3250   -1.0998
                                                         9  C           -1.5478   -0.0836    0.5471
                                                        10  C            0.0049    1.7756    0.7780
                                                        22  H            0.5130    2.5728    0.2416
                                                        11  H           -0.2202   -2.2186   -0.5499
                                                        12  H            0.9658   -2.3351    0.7606
                                                        23  H           -1.2022   -1.7923    1.6680
                                                        26  H            0.6030    0.2436    2.0344
                                                        15  H            2.5758   -0.5364    1.0259
                                                        16  H            2.5331    0.8456   -0.1013
                                                        17  H           -0.4540   -0.2300   -1.8211
                                                        18  H            0.7088    1.0914   -1.6285
                                                        19  H           -2.2008    0.3708    1.2920
                                                        20  H           -2.1729   -0.5478   -0.2228
                                                        21  H           -0.6197    2.1924    1.5674
    2  CH2OH                                             6  C            1.9807    1.7797    2.4005
                                                        25  H            3.2014    3.2825    2.1122
                                                        13  H            1.3273    2.2576    3.1369
                                                        14  H            2.6720    1.1017    2.9107
                                                        24  O            2.6381    2.7052    1.5776



 =====================================
 S Y M M E T R Y ,   E L E C T R O N S
 =====================================
  
 Symmetry: NOSYM

 Irreducible Representations, including subspecies
 -------------------------------------------------
 A


 Configuration of Valence Electrons
 ==================================
 ( determined in the SCF procedure )

 Total:   86

 Net Charge: 1 (Nuclei minus Electrons)

 Aufbau principle for MO occupations will be applied through SCF cycle no.     150
 Thereafter, the program will assign electrons to MOs that are spatially
 similar to the occupied MOs in a "reference" cycle ("KeepOrbitals").
 The reference cycle is always the PREVIOUS cycle: it will evolve with
 the SCF procedure.
1
 ***************************************************************************************************



                                      ****************************************
                                      *  B U I L D : (Fragments, Functions)  *
                                      ****************************************
  

 The individual fragments are copies of the corresponding 'Master' fragments defined on the fragment files.
 However, they may have been rotated (and translated) with respect to the Master. The local coordinate axes
 of each fragment (which define for instance the spatial orientation in the current molecule of a fragment
 P:x orbital) are not necessarily those of the molecule.
 The local frame (if different from the molecular one) is printed to enable an interpretation of the expan-
 sion of an MO in Fragment Orbitals.



                                             **************************
                                             *  Fragment Type : rest  *
                                             **************************
  

 Fragment no.    1   (in the list of all fragments)
 -----------------
 The local coordinate frame is identical to the molecular frame.

 Check Atomic Coordinates:

                  Master (on file)          After Computed Tranformation               As specified on Input
           ----------------------------     ----------------------------     ---------------------------------
     1)     1.06307  -0.59610  -0.41733      1.06307  -0.59610  -0.41733       1   1.06307  -0.59610  -0.41733
     2)    -0.65517  -1.06363   1.21670     -0.65517  -1.06363   1.21670       2  -0.65517  -1.06363   1.21670
     3)     1.12700   0.96126   1.50147      1.12700   0.96126   1.50147       3   1.12700   0.96126   1.50147
     4)    -0.74760   0.95242  -0.11185     -0.74760   0.95242  -0.11185       4  -0.74760   0.95242  -0.11185
     5)     0.29206  -1.65658   0.23806      0.29206  -1.65658   0.23806       5   0.29206  -1.65658   0.23806
     6)     1.93194   0.12876   0.45167      1.93194   0.12876   0.45167       7   1.93194   0.12876   0.45167
     7)     0.14242   0.32502  -1.09981      0.14242   0.32502  -1.09981       8   0.14242   0.32502  -1.09981
     8)    -1.54782  -0.08364   0.54709     -1.54782  -0.08364   0.54709       9  -1.54782  -0.08364   0.54709
     9)     0.00492   1.77559   0.77800      0.00492   1.77559   0.77800      10   0.00492   1.77559   0.77800
    10)     0.51298   2.57285   0.24157      0.51298   2.57285   0.24157      22   0.51298   2.57285   0.24157
    11)    -0.22017  -2.21863  -0.54985     -0.22017  -2.21863  -0.54985      11  -0.22017  -2.21863  -0.54985
    12)     0.96576  -2.33515   0.76058      0.96576  -2.33515   0.76058      12   0.96576  -2.33515   0.76058
    13)    -1.20222  -1.79227   1.66803     -1.20222  -1.79227   1.66803      23  -1.20222  -1.79227   1.66803
    14)     0.60300   0.24361   2.03440      0.60300   0.24361   2.03440      26   0.60300   0.24361   2.03440
    15)     2.57583  -0.53644   1.02593      2.57583  -0.53644   1.02593      15   2.57583  -0.53644   1.02593
    16)     2.53315   0.84563  -0.10126      2.53315   0.84563  -0.10126      16   2.53315   0.84563  -0.10126
    17)    -0.45405  -0.22996  -1.82106     -0.45405  -0.22996  -1.82106      17  -0.45405  -0.22996  -1.82106
    18)     0.70879   1.09138  -1.62853      0.70879   1.09138  -1.62853      18   0.70879   1.09138  -1.62853
    19)    -2.20078   0.37079   1.29197     -2.20078   0.37079   1.29197      19  -2.20078   0.37079   1.29197
    20)    -2.17293  -0.54775  -0.22282     -2.17293  -0.54775  -0.22282      20  -2.17293  -0.54775  -0.22282
    21)    -0.61969   2.19242   1.56741     -0.61969   2.19242   1.56741      21  -0.61969   2.19242   1.56741



                                            ***************************
                                            *  Fragment Type : CH2OH  *
                                            ***************************
  

 Fragment no.    2   (in the list of all fragments)
 -----------------
 The local coordinate frame is identical to the molecular frame.

 Check Atomic Coordinates:

                  Master (on file)          After Computed Tranformation               As specified on Input
           ----------------------------     ----------------------------     ---------------------------------
     1)     1.98072   1.77967   2.40050      1.98072   1.77967   2.40050       6   1.98072   1.77967   2.40050
     2)     3.20140   3.28249   2.11218      3.20140   3.28249   2.11218      25   3.20140   3.28249   2.11218
     3)     1.32731   2.25765   3.13689      1.32731   2.25765   3.13689      13   1.32731   2.25765   3.13689
     4)     2.67197   1.10173   2.91075      2.67197   1.10173   2.91075      14   2.67197   1.10173   2.91075
     5)     2.63811   2.70519   1.57761      2.63811   2.70519   1.57761      24   2.63811   2.70519   1.57761



 =======
 S F O s  ***  (Symmetrized Fragment Orbitals)  ***
 =======
  
 SFOs are linear combinations of (valence) Fragment Orbitals (FOs), such that the SFOs transform as the
 irreducible representations of the (molecular) symmetry group. Each SFO is therefore characterized by
 an irrep of the molecule and by a few (or only one) generating FOs.
 The SFOs constitute a symmetry-adapted basis for the Fock matrix. The MO eigenvector coefficients in
 this basis provide a direct interpretation of the MOs in terms of Frontier Orbital Theory.

 The SFOs are combined with auxiliary Core Functions (CFs) to ensure orthogonalization on the (frozen)
 Core Orbitals (COs). The Core-orthogonalized SFOs (CSFOs) constitute the true Fock basis.

 The FOs, and hence also the (C)SFOs are combinations of the elementary basis functions (BAS). The basis
 functions that participate in the description of the SFOs depend on the irrep. The indices of the
 involved functions are printed below for each irrep.
 (The complete list of primitive basis functions is printed in another section)

 Total nr. of (C)SFOs (summation over all irreps) :   299

 NOTE: a (C)SFO that is defined as a combination of more than one FO is usually NOT normalized.



                                       === A ===
 Nr. of SFOs :  299
 Cartesian basis functions that participate in this irrep (total number =   310) :
      1     2     3     4     5     6     9    12     7    10
     13     8    11    14    15    16    17    18    19    20
     21    22    23    24    25    26    29    32    27    30
     33    28    31    34    35    36    37    38    39    40
     41    42    43    44    45    46    49    52    47    50
     53    48    51    54    55    56    57    58    59    60
     61    62    63    64    65    66    69    72    67    70
     73    68    71    74    75    76    77    78    79    80
     81    82    83    84    85    86    89    92    87    90
     93    88    91    94    95    96    97    98    99   100
    101   102   103   104   105   106   109   112   107   110
    113   108   111   114   115   116   117   118   119   120
    121   122   123   124   125   126   129   132   127   130
    133   128   131   134   135   136   137   138   139   140
    141   142   143   144   145   146   149   152   147   150
    153   148   151   154   155   156   157   158   159   160
    161   162   163   164   165   166   169   172   167   170
    173   168   171   174   175   176   177   178   179   180
    181   182   183   184   185   186   187   188   189   190
    191   192   193   194   195   196   197   198   199   200
    201   202   203   204   205   206   207   208   209   210
    211   212   213   214   215   216   217   218   219   220
    221   222   223   224   225   226   227   228   229   230
    231   232   233   234   235   236   237   238   239   240
    241   242   243   244   245   246   247   248   249   250
    251   252   253   254   255   256   257   258   261   264
    259   262   265   260   263   266   267   268   269   270
    271   272   273   274   275   276   277   278   279   280
    281   282   283   284   285   286   287   288   289   290
    291   292   293   294   295   296   299   302   297   300
    303   298   301   304   305   306   307   308   309   310

    SFO  (index         Fragment          Generating    Expansion in Fragment Orbitals
  indx  incl.CFs)   Occup   Orb.Energy   FragmentType  Coeff.   Orbital     on Fragment
 --------------------------------------------------------------------------------------
     1       1      2.000     -14.318 au  rest          1.00      1 A               1
                        (    -389.621 eV)
     2       2      2.000     -14.316 au  rest          1.00      2 A               1
                        (    -389.558 eV)
     3       3      2.000     -14.316 au  rest          1.00      3 A               1
                        (    -389.555 eV)
     4       4      2.000     -14.279 au  rest          1.00      4 A               1
                        (    -388.551 eV)
     5       5      2.000     -10.238 au  rest          1.00      5 A               1
                        (    -278.604 eV)
     6       6      2.000     -10.238 au  rest          1.00      6 A               1
                        (    -278.601 eV)
     7       7      2.000     -10.232 au  rest          1.00      7 A               1
                        (    -278.438 eV)
     8       8      2.000     -10.220 au  rest          1.00      8 A               1
                        (    -278.100 eV)
     9       9      2.000     -10.220 au  rest          1.00      9 A               1
                        (    -278.094 eV)
    10      10      2.000      -0.997 au  rest          1.00     10 A               1
                        (     -27.122 eV)
    11      11      2.000      -0.902 au  rest          1.00     11 A               1
                        (     -24.556 eV)
    12      12      2.000      -0.894 au  rest          1.00     12 A               1
                        (     -24.321 eV)
    13      13      2.000      -0.834 au  rest          1.00     13 A               1
                        (     -22.685 eV)
    14      14      2.000      -0.715 au  rest          1.00     14 A               1
                        (     -19.453 eV)
    15      15      2.000      -0.691 au  rest          1.00     15 A               1
                        (     -18.801 eV)
    16      16      2.000      -0.660 au  rest          1.00     16 A               1
                        (     -17.949 eV)
    17      17      2.000      -0.635 au  rest          1.00     17 A               1
                        (     -17.287 eV)
    18      18      2.000      -0.574 au  rest          1.00     18 A               1
                        (     -15.619 eV)
    19      19      2.000      -0.519 au  rest          1.00     19 A               1
                        (     -14.110 eV)
    20      20      2.000      -0.497 au  rest          1.00     20 A               1
                        (     -13.526 eV)
    21      21      2.000      -0.490 au  rest          1.00     21 A               1
                        (     -13.322 eV)
    22      22      2.000      -0.482 au  rest          1.00     22 A               1
                        (     -13.128 eV)
    23      23      2.000      -0.478 au  rest          1.00     23 A               1
                        (     -13.007 eV)
    24      24      2.000      -0.436 au  rest          1.00     24 A               1
                        (     -11.865 eV)
    25      25      2.000      -0.434 au  rest          1.00     25 A               1
                        (     -11.797 eV)
    26      26      2.000      -0.395 au  rest          1.00     26 A               1
                        (     -10.743 eV)
    27      27      2.000      -0.385 au  rest          1.00     27 A               1
                        (     -10.489 eV)
    28      28      2.000      -0.383 au  rest          1.00     28 A               1
                        (     -10.409 eV)
    29      29      2.000      -0.382 au  rest          1.00     29 A               1
                        (     -10.387 eV)
    30      30      2.000      -0.369 au  rest          1.00     30 A               1
                        (     -10.035 eV)
    31      31      2.000      -0.363 au  rest          1.00     31 A               1
                        (      -9.886 eV)
    32      32      2.000      -0.298 au  rest          1.00     32 A               1
                        (      -8.102 eV)
    33      33      2.000      -0.251 au  rest          1.00     33 A               1
                        (      -6.825 eV)
    34      34      2.000      -0.216 au  rest          1.00     34 A               1
                        (      -5.887 eV)
    35      35      2.000      -0.204 au  rest          1.00     35 A               1
                        (      -5.544 eV)
    36      36       --         0.002 au  rest          1.00     36 A               1
                        (       0.050 eV)
    37      37       --         0.025 au  rest          1.00     37 A               1
                        (       0.688 eV)
    38      38       --         0.032 au  rest          1.00     38 A               1
                        (       0.875 eV)
    39      39       --         0.032 au  rest          1.00     39 A               1
                        (       0.883 eV)
    40      40       --         0.044 au  rest          1.00     40 A               1
                        (       1.199 eV)
    41      41       --         0.065 au  rest          1.00     41 A               1
                        (       1.769 eV)
    42      42       --         0.070 au  rest          1.00     42 A               1
                        (       1.891 eV)
    43      43       --         0.072 au  rest          1.00     43 A               1
                        (       1.951 eV)
    44      44       --         0.073 au  rest          1.00     44 A               1
                        (       1.974 eV)
    45      45       --         0.102 au  rest          1.00     45 A               1
                        (       2.782 eV)
    46      46       --         0.110 au  rest          1.00     46 A               1
                        (       2.988 eV)
    47      47       --         0.119 au  rest          1.00     47 A               1
                        (       3.240 eV)
    48      48       --         0.122 au  rest          1.00     48 A               1
                        (       3.314 eV)
    49      49       --         0.132 au  rest          1.00     49 A               1
                        (       3.588 eV)
    50      50       --         0.149 au  rest          1.00     50 A               1
                        (       4.041 eV)
    51      51       --         0.170 au  rest          1.00     51 A               1
                        (       4.632 eV)
    52      52       --         0.177 au  rest          1.00     52 A               1
                        (       4.830 eV)
    53      53       --         0.202 au  rest          1.00     53 A               1
                        (       5.496 eV)
    54      54       --         0.210 au  rest          1.00     54 A               1
                        (       5.707 eV)
    55      55       --         0.217 au  rest          1.00     55 A               1
                        (       5.900 eV)
    56      56       --         0.231 au  rest          1.00     56 A               1
                        (       6.285 eV)
    57      57       --         0.233 au  rest          1.00     57 A               1
                        (       6.338 eV)
    58      58       --         0.252 au  rest          1.00     58 A               1
                        (       6.862 eV)
    59      59       --         0.255 au  rest          1.00     59 A               1
                        (       6.948 eV)
    60      60       --         0.270 au  rest          1.00     60 A               1
                        (       7.353 eV)
    61      61       --         0.280 au  rest          1.00     61 A               1
                        (       7.620 eV)
    62      62       --         0.296 au  rest          1.00     62 A               1
                        (       8.068 eV)
    63      63       --         0.298 au  rest          1.00     63 A               1
                        (       8.105 eV)
    64      64       --         0.304 au  rest          1.00     64 A               1
                        (       8.273 eV)
    65      65       --         0.315 au  rest          1.00     65 A               1
                        (       8.582 eV)
    66      66       --         0.317 au  rest          1.00     66 A               1
                        (       8.625 eV)
    67      67       --         0.320 au  rest          1.00     67 A               1
                        (       8.719 eV)
    68      68       --         0.334 au  rest          1.00     68 A               1
                        (       9.087 eV)
    69      69       --         0.338 au  rest          1.00     69 A               1
                        (       9.203 eV)
    70      70       --         0.370 au  rest          1.00     70 A               1
                        (      10.062 eV)
    71      71       --         0.374 au  rest          1.00     71 A               1
                        (      10.175 eV)
    72      72       --         0.387 au  rest          1.00     72 A               1
                        (      10.541 eV)
    73      73       --         0.409 au  rest          1.00     73 A               1
                        (      11.135 eV)
    74      74       --         0.439 au  rest          1.00     74 A               1
                        (      11.954 eV)
    75      75       --         0.442 au  rest          1.00     75 A               1
                        (      12.025 eV)
    76      76       --         0.443 au  rest          1.00     76 A               1
                        (      12.064 eV)
    77      77       --         0.461 au  rest          1.00     77 A               1
                        (      12.536 eV)
    78      78       --         0.469 au  rest          1.00     78 A               1
                        (      12.749 eV)
    79      79       --         0.475 au  rest          1.00     79 A               1
                        (      12.932 eV)
    80      80       --         0.489 au  rest          1.00     80 A               1
                        (      13.293 eV)
    81      81       --         0.498 au  rest          1.00     81 A               1
                        (      13.551 eV)
    82      82       --         0.505 au  rest          1.00     82 A               1
                        (      13.752 eV)
    83      83       --         0.533 au  rest          1.00     83 A               1
                        (      14.508 eV)
    84      84       --         0.547 au  rest          1.00     84 A               1
                        (      14.877 eV)
    85      85       --         0.549 au  rest          1.00     85 A               1
                        (      14.952 eV)
    86      86       --         0.572 au  rest          1.00     86 A               1
                        (      15.558 eV)
    87      87       --         0.581 au  rest          1.00     87 A               1
                        (      15.800 eV)
    88      88       --         0.608 au  rest          1.00     88 A               1
                        (      16.558 eV)
    89      89       --         0.613 au  rest          1.00     89 A               1
                        (      16.692 eV)
    90      90       --         0.623 au  rest          1.00     90 A               1
                        (      16.959 eV)
    91      91       --         0.627 au  rest          1.00     91 A               1
                        (      17.049 eV)
    92      92       --         0.673 au  rest          1.00     92 A               1
                        (      18.320 eV)
    93      93       --         0.712 au  rest          1.00     93 A               1
                        (      19.373 eV)
    94      94       --         0.761 au  rest          1.00     94 A               1
                        (      20.715 eV)
    95      95       --         0.787 au  rest          1.00     95 A               1
                        (      21.426 eV)
    96      96       --         0.799 au  rest          1.00     96 A               1
                        (      21.755 eV)
    97      97       --         0.813 au  rest          1.00     97 A               1
                        (      22.130 eV)
    98      98       --         0.851 au  rest          1.00     98 A               1
                        (      23.167 eV)
    99      99       --         0.888 au  rest          1.00     99 A               1
                        (      24.176 eV)
   100     100       --         0.930 au  rest          1.00    100 A               1
                        (      25.309 eV)
   101     101       --         0.937 au  rest          1.00    101 A               1
                        (      25.504 eV)
   102     102       --         0.955 au  rest          1.00    102 A               1
                        (      25.984 eV)
   103     103       --         0.957 au  rest          1.00    103 A               1
                        (      26.039 eV)
   104     104       --         0.980 au  rest          1.00    104 A               1
                        (      26.656 eV)
   105     105       --         0.983 au  rest          1.00    105 A               1
                        (      26.752 eV)
   106     106       --         1.025 au  rest          1.00    106 A               1
                        (      27.882 eV)
   107     107       --         1.026 au  rest          1.00    107 A               1
                        (      27.907 eV)
   108     108       --         1.056 au  rest          1.00    108 A               1
                        (      28.722 eV)
   109     109       --         1.083 au  rest          1.00    109 A               1
                        (      29.467 eV)
   110     110       --         1.107 au  rest          1.00    110 A               1
                        (      30.134 eV)
   111     111       --         1.117 au  rest          1.00    111 A               1
                        (      30.406 eV)
   112     112       --         1.138 au  rest          1.00    112 A               1
                        (      30.977 eV)
   113     113       --         1.165 au  rest          1.00    113 A               1
                        (      31.708 eV)
   114     114       --         1.171 au  rest          1.00    114 A               1
                        (      31.859 eV)
   115     115       --         1.192 au  rest          1.00    115 A               1
                        (      32.441 eV)
   116     116       --         1.212 au  rest          1.00    116 A               1
                        (      32.986 eV)
   117     117       --         1.218 au  rest          1.00    117 A               1
                        (      33.143 eV)
   118     118       --         1.240 au  rest          1.00    118 A               1
                        (      33.750 eV)
   119     119       --         1.242 au  rest          1.00    119 A               1
                        (      33.801 eV)
   120     120       --         1.273 au  rest          1.00    120 A               1
                        (      34.653 eV)
   121     121       --         1.295 au  rest          1.00    121 A               1
                        (      35.248 eV)
   122     122       --         1.305 au  rest          1.00    122 A               1
                        (      35.504 eV)
   123     123       --         1.310 au  rest          1.00    123 A               1
                        (      35.645 eV)
   124     124       --         1.327 au  rest          1.00    124 A               1
                        (      36.096 eV)
   125     125       --         1.346 au  rest          1.00    125 A               1
                        (      36.619 eV)
   126     126       --         1.346 au  rest          1.00    126 A               1
                        (      36.633 eV)
   127     127       --         1.362 au  rest          1.00    127 A               1
                        (      37.071 eV)
   128     128       --         1.395 au  rest          1.00    128 A               1
                        (      37.949 eV)
   129     129       --         1.402 au  rest          1.00    129 A               1
                        (      38.140 eV)
   130     130       --         1.409 au  rest          1.00    130 A               1
                        (      38.339 eV)
   131     131       --         1.420 au  rest          1.00    131 A               1
                        (      38.652 eV)
   132     132       --         1.436 au  rest          1.00    132 A               1
                        (      39.086 eV)
   133     133       --         1.471 au  rest          1.00    133 A               1
                        (      40.030 eV)
   134     134       --         1.521 au  rest          1.00    134 A               1
                        (      41.376 eV)
   135     135       --         1.529 au  rest          1.00    135 A               1
                        (      41.597 eV)
   136     136       --         1.574 au  rest          1.00    136 A               1
                        (      42.837 eV)
   137     137       --         1.589 au  rest          1.00    137 A               1
                        (      43.242 eV)
   138     138       --         1.650 au  rest          1.00    138 A               1
                        (      44.899 eV)
   139     139       --         1.659 au  rest          1.00    139 A               1
                        (      45.133 eV)
   140     140       --         1.660 au  rest          1.00    140 A               1
                        (      45.182 eV)
   141     141       --         1.717 au  rest          1.00    141 A               1
                        (      46.710 eV)
   142     142       --         1.719 au  rest          1.00    142 A               1
                        (      46.780 eV)
   143     143       --         1.767 au  rest          1.00    143 A               1
                        (      48.073 eV)
   144     144       --         1.783 au  rest          1.00    144 A               1
                        (      48.531 eV)
   145     145       --         1.793 au  rest          1.00    145 A               1
                        (      48.791 eV)
   146     146       --         1.821 au  rest          1.00    146 A               1
                        (      49.565 eV)
   147     147       --         1.845 au  rest          1.00    147 A               1
                        (      50.194 eV)
   148     148       --         1.848 au  rest          1.00    148 A               1
                        (      50.293 eV)
   149     149       --         1.853 au  rest          1.00    149 A               1
                        (      50.422 eV)
   150     150       --         1.870 au  rest          1.00    150 A               1
                        (      50.886 eV)
   151     151       --         1.883 au  rest          1.00    151 A               1
                        (      51.240 eV)
   152     152       --         1.907 au  rest          1.00    152 A               1
                        (      51.892 eV)
   153     153       --         1.913 au  rest          1.00    153 A               1
                        (      52.064 eV)
   154     154       --         1.936 au  rest          1.00    154 A               1
                        (      52.685 eV)
   155     155       --         1.963 au  rest          1.00    155 A               1
                        (      53.426 eV)
   156     156       --         1.998 au  rest          1.00    156 A               1
                        (      54.358 eV)
   157     157       --         2.075 au  rest          1.00    157 A               1
                        (      56.471 eV)
   158     158       --         2.101 au  rest          1.00    158 A               1
                        (      57.161 eV)
   159     159       --         2.101 au  rest          1.00    159 A               1
                        (      57.177 eV)
   160     160       --         2.174 au  rest          1.00    160 A               1
                        (      59.171 eV)
   161     161       --         2.201 au  rest          1.00    161 A               1
                        (      59.889 eV)
   162     162       --         2.210 au  rest          1.00    162 A               1
                        (      60.136 eV)
   163     163       --         2.216 au  rest          1.00    163 A               1
                        (      60.301 eV)
   164     164       --         2.250 au  rest          1.00    164 A               1
                        (      61.228 eV)
   165     165       --         2.293 au  rest          1.00    165 A               1
                        (      62.385 eV)
   166     166       --         2.327 au  rest          1.00    166 A               1
                        (      63.328 eV)
   167     167       --         2.343 au  rest          1.00    167 A               1
                        (      63.744 eV)
   168     168       --         2.349 au  rest          1.00    168 A               1
                        (      63.916 eV)
   169     169       --         2.422 au  rest          1.00    169 A               1
                        (      65.911 eV)
   170     170       --         2.453 au  rest          1.00    170 A               1
                        (      66.748 eV)
   171     171       --         2.478 au  rest          1.00    171 A               1
                        (      67.426 eV)
   172     172       --         2.495 au  rest          1.00    172 A               1
                        (      67.902 eV)
   173     173       --         2.525 au  rest          1.00    173 A               1
                        (      68.707 eV)
   174     174       --         2.530 au  rest          1.00    174 A               1
                        (      68.835 eV)
   175     175       --         2.577 au  rest          1.00    175 A               1
                        (      70.118 eV)
   176     176       --         2.597 au  rest          1.00    176 A               1
                        (      70.676 eV)
   177     177       --         2.653 au  rest          1.00    177 A               1
                        (      72.184 eV)
   178     178       --         2.670 au  rest          1.00    178 A               1
                        (      72.653 eV)
   179     179       --         2.703 au  rest          1.00    179 A               1
                        (      73.545 eV)
   180     180       --         2.753 au  rest          1.00    180 A               1
                        (      74.904 eV)
   181     181       --         2.800 au  rest          1.00    181 A               1
                        (      76.182 eV)
   182     182       --         2.857 au  rest          1.00    182 A               1
                        (      77.754 eV)
   183     183       --         2.872 au  rest          1.00    183 A               1
                        (      78.157 eV)
   184     184       --         2.929 au  rest          1.00    184 A               1
                        (      79.697 eV)
   185     185       --         2.948 au  rest          1.00    185 A               1
                        (      80.215 eV)
   186     186       --         2.963 au  rest          1.00    186 A               1
                        (      80.640 eV)
   187     187       --         3.019 au  rest          1.00    187 A               1
                        (      82.144 eV)
   188     188       --         3.025 au  rest          1.00    188 A               1
                        (      82.315 eV)
   189     189       --         3.031 au  rest          1.00    189 A               1
                        (      82.474 eV)
   190     190       --         3.094 au  rest          1.00    190 A               1
                        (      84.202 eV)
   191     191       --         3.244 au  rest          1.00    191 A               1
                        (      88.285 eV)
   192     192       --         3.370 au  rest          1.00    192 A               1
                        (      91.689 eV)
   193     193       --         3.397 au  rest          1.00    193 A               1
                        (      92.436 eV)
   194     194       --         3.538 au  rest          1.00    194 A               1
                        (      96.272 eV)
   195     195       --         3.571 au  rest          1.00    195 A               1
                        (      97.182 eV)
   196     196       --         3.617 au  rest          1.00    196 A               1
                        (      98.435 eV)
   197     197       --         3.683 au  rest          1.00    197 A               1
                        (     100.226 eV)
   198     198       --         3.734 au  rest          1.00    198 A               1
                        (     101.612 eV)
   199     199       --         3.843 au  rest          1.00    199 A               1
                        (     104.575 eV)
   200     200       --         3.938 au  rest          1.00    200 A               1
                        (     107.153 eV)
   201     201       --         3.949 au  rest          1.00    201 A               1
                        (     107.453 eV)
   202     202       --         4.097 au  rest          1.00    202 A               1
                        (     111.492 eV)
   203     203       --         4.183 au  rest          1.00    203 A               1
                        (     113.814 eV)
   204     204       --         4.196 au  rest          1.00    204 A               1
                        (     114.187 eV)
   205     205       --         4.219 au  rest          1.00    205 A               1
                        (     114.806 eV)
   206     206       --         4.258 au  rest          1.00    206 A               1
                        (     115.855 eV)
   207     207       --         4.277 au  rest          1.00    207 A               1
                        (     116.386 eV)
   208     208       --         4.403 au  rest          1.00    208 A               1
                        (     119.802 eV)
   209     209       --         4.517 au  rest          1.00    209 A               1
                        (     122.914 eV)
   210     210       --         4.549 au  rest          1.00    210 A               1
                        (     123.776 eV)
   211     211       --         4.588 au  rest          1.00    211 A               1
                        (     124.833 eV)
   212     212       --         4.673 au  rest          1.00    212 A               1
                        (     127.169 eV)
   213     213       --         4.719 au  rest          1.00    213 A               1
                        (     128.404 eV)
   214     214       --         4.912 au  rest          1.00    214 A               1
                        (     133.673 eV)
   215     215       --         5.003 au  rest          1.00    215 A               1
                        (     136.146 eV)
   216     216       --         5.021 au  rest          1.00    216 A               1
                        (     136.634 eV)
   217     217       --         5.217 au  rest          1.00    217 A               1
                        (     141.969 eV)
   218     218       --         5.288 au  rest          1.00    218 A               1
                        (     143.900 eV)
   219     219       --         5.509 au  rest          1.00    219 A               1
                        (     149.898 eV)
   220     220       --         5.530 au  rest          1.00    220 A               1
                        (     150.477 eV)
   221     221       --         5.587 au  rest          1.00    221 A               1
                        (     152.034 eV)
   222     222       --         5.620 au  rest          1.00    222 A               1
                        (     152.938 eV)
   223     223       --         5.823 au  rest          1.00    223 A               1
                        (     158.451 eV)
   224     224       --         5.901 au  rest          1.00    224 A               1
                        (     160.587 eV)
   225     225       --         6.013 au  rest          1.00    225 A               1
                        (     163.635 eV)
   226     226       --         7.107 au  rest          1.00    226 A               1
                        (     193.380 eV)
   227     227       --         7.484 au  rest          1.00    227 A               1
                        (     203.640 eV)
   228     228       --         7.630 au  rest          1.00    228 A               1
                        (     207.612 eV)
   229     229       --         8.025 au  rest          1.00    229 A               1
                        (     218.371 eV)
   230     230       --         8.278 au  rest          1.00    230 A               1
                        (     225.243 eV)
   231     231       --         9.390 au  rest          1.00    231 A               1
                        (     255.528 eV)
   232     232       --         9.527 au  rest          1.00    232 A               1
                        (     259.236 eV)
   233     233       --         9.629 au  rest          1.00    233 A               1
                        (     262.016 eV)
   234     234       --         9.747 au  rest          1.00    234 A               1
                        (     265.234 eV)
   235     235       --        55.457 au  rest          1.00    235 A               1
                        (    1509.062 eV)
   236     236       --        56.713 au  rest          1.00    236 A               1
                        (    1543.229 eV)
   237     237       --        56.941 au  rest          1.00    237 A               1
                        (    1549.443 eV)
   238     238       --        58.499 au  rest          1.00    238 A               1
                        (    1591.846 eV)
   239     239       --        59.304 au  rest          1.00    239 A               1
                        (    1613.743 eV)
   240     240       --        71.680 au  rest          1.00    240 A               1
                        (    1950.524 eV)
   241     241       --        72.172 au  rest          1.00    241 A               1
                        (    1963.888 eV)
   242     242       --        72.516 au  rest          1.00    242 A               1
                        (    1973.255 eV)
   243     243       --        72.897 au  rest          1.00    243 A               1
                        (    1983.629 eV)
   244     244      2.000     -19.483 au  CH2OH         1.00      1 A               2
                        (    -530.162 eV)
   245     245      2.000     -10.666 au  CH2OH         1.00      2 A               2
                        (    -290.244 eV)
   246     246      2.000      -1.367 au  CH2OH         1.00      3 A               2
                        (     -37.192 eV)
   247     247      2.000      -1.008 au  CH2OH         1.00      4 A               2
                        (     -27.420 eV)
   248     248      2.000      -0.857 au  CH2OH         1.00      5 A               2
                        (     -23.325 eV)
   249     249      2.000      -0.794 au  CH2OH         1.00      6 A               2
                        (     -21.597 eV)
   250     250      2.000      -0.716 au  CH2OH         1.00      7 A               2
                        (     -19.496 eV)
   251     251      2.000      -0.608 au  CH2OH         1.00      8 A               2
                        (     -16.547 eV)
   252     252       --        -0.486 au  CH2OH         1.00      9 A               2
                        (     -13.227 eV)
   253     253       --        -0.223 au  CH2OH         1.00     10 A               2
                        (      -6.074 eV)
   254     254       --        -0.181 au  CH2OH         1.00     11 A               2
                        (      -4.917 eV)
   255     255       --        -0.148 au  CH2OH         1.00     12 A               2
                        (      -4.035 eV)
   256     256       --        -0.128 au  CH2OH         1.00     13 A               2
                        (      -3.480 eV)
   257     257       --        -0.053 au  CH2OH         1.00     14 A               2
                        (      -1.454 eV)
   258     258       --        -0.040 au  CH2OH         1.00     15 A               2
                        (      -1.096 eV)
   259     259       --         0.005 au  CH2OH         1.00     16 A               2
                        (       0.125 eV)
   260     260       --         0.034 au  CH2OH         1.00     17 A               2
                        (       0.933 eV)
   261     261       --         0.043 au  CH2OH         1.00     18 A               2
                        (       1.158 eV)
   262     262       --         0.127 au  CH2OH         1.00     19 A               2
                        (       3.463 eV)
   263     263       --         0.162 au  CH2OH         1.00     20 A               2
                        (       4.419 eV)
   264     264       --         0.169 au  CH2OH         1.00     21 A               2
                        (       4.602 eV)
   265     265       --         0.259 au  CH2OH         1.00     22 A               2
                        (       7.046 eV)
   266     266       --         0.359 au  CH2OH         1.00     23 A               2
                        (       9.780 eV)
   267     267       --         0.382 au  CH2OH         1.00     24 A               2
                        (      10.406 eV)
   268     268       --         0.430 au  CH2OH         1.00     25 A               2
                        (      11.692 eV)
   269     269       --         0.473 au  CH2OH         1.00     26 A               2
                        (      12.879 eV)
   270     270       --         0.634 au  CH2OH         1.00     27 A               2
                        (      17.256 eV)
   271     271       --         0.636 au  CH2OH         1.00     28 A               2
                        (      17.318 eV)
   272     272       --         0.679 au  CH2OH         1.00     29 A               2
                        (      18.483 eV)
   273     273       --         0.855 au  CH2OH         1.00     30 A               2
                        (      23.262 eV)
   274     274       --         0.900 au  CH2OH         1.00     31 A               2
                        (      24.501 eV)
   275     275       --         0.985 au  CH2OH         1.00     32 A               2
                        (      26.802 eV)
   276     276       --         1.083 au  CH2OH         1.00     33 A               2
                        (      29.471 eV)
   277     277       --         1.095 au  CH2OH         1.00     34 A               2
                        (      29.785 eV)
   278     278       --         1.311 au  CH2OH         1.00     35 A               2
                        (      35.685 eV)
   279     279       --         1.397 au  CH2OH         1.00     36 A               2
                        (      38.022 eV)
   280     280       --         1.415 au  CH2OH         1.00     37 A               2
                        (      38.492 eV)
   281     281       --         1.638 au  CH2OH         1.00     38 A               2
                        (      44.564 eV)
   282     282       --         1.647 au  CH2OH         1.00     39 A               2
                        (      44.819 eV)
   283     283       --         1.818 au  CH2OH         1.00     40 A               2
                        (      49.467 eV)
   284     284       --         1.860 au  CH2OH         1.00     41 A               2
                        (      50.620 eV)
   285     285       --         2.025 au  CH2OH         1.00     42 A               2
                        (      55.103 eV)
   286     286       --         2.032 au  CH2OH         1.00     43 A               2
                        (      55.285 eV)
   287     287       --         2.160 au  CH2OH         1.00     44 A               2
                        (      58.765 eV)
   288     288       --         2.172 au  CH2OH         1.00     45 A               2
                        (      59.098 eV)
   289     289       --         2.594 au  CH2OH         1.00     46 A               2
                        (      70.586 eV)
   290     290       --         2.823 au  CH2OH         1.00     47 A               2
                        (      76.806 eV)
   291     291       --         3.512 au  CH2OH         1.00     48 A               2
                        (      95.566 eV)
   292     292       --         3.776 au  CH2OH         1.00     49 A               2
                        (     102.763 eV)
   293     293       --         4.191 au  CH2OH         1.00     50 A               2
                        (     114.054 eV)
   294     294       --         4.912 au  CH2OH         1.00     51 A               2
                        (     133.673 eV)
   295     295       --         5.368 au  CH2OH         1.00     52 A               2
                        (     146.084 eV)
   296     296       --         6.747 au  CH2OH         1.00     53 A               2
                        (     183.589 eV)
   297     297       --        15.935 au  CH2OH         1.00     54 A               2
                        (     433.601 eV)
   298     298       --        54.371 au  CH2OH         1.00     55 A               2
                        (    1479.497 eV)
   299     299       --       130.919 au  CH2OH         1.00     56 A               2
                        (    3562.495 eV)



 ================================
 (Slater-type)  F U N C T I O N S  ***  (Basis and Fit)  ***
 ================================
  

 Atom Type    1  (N)
 ==============

 Valence Basis Sets:   9
 -----------------------
   1 S    8.740000
   1 S    5.900000
   2 S    5.150000
   2 S    2.500000
   2 S    1.500000
   2 P    3.680000
   2 P    1.880000
   2 P    1.000000
   3 D    2.200000

 Charge Fitting Sets (for the computation of the Coulomb Potential):  22
 -----------------------------------------------------------------------
   1 S   17.480000
   2 S   20.150000
   2 S   13.990000
   2 S    9.710000
   2 S    6.740000
   3 S    6.860000
   3 S    5.040000
   3 S    3.700000
   3 S    2.720000
   3 S    2.000000
   2 P   11.320000
   2 P    6.730000
   3 P    5.920000
   3 P    3.820000
   3 P    2.460000
   3 D    8.100000
   3 D    5.080000
   3 D    3.190000
   3 D    2.000000
   4 F    5.800000
   4 F    3.600000
   5 G    4.500000

 Atom Type    2  (C)
 ==============

 Valence Basis Sets:   9
 -----------------------
   1 S    7.680000
   1 S    5.000000
   2 S    1.280000
   2 S    2.100000
   2 S    4.600000
   2 P    0.820000
   2 P    1.480000
   2 P    2.940000
   3 D    2.200000

 Charge Fitting Sets (for the computation of the Coulomb Potential):  22
 -----------------------------------------------------------------------
   1 S   15.360000
   2 S   17.530000
   2 S   12.070000
   2 S    8.310000
   2 S    5.730000
   3 S    5.780000
   3 S    4.220000
   3 S    3.080000
   3 S    2.250000
   3 S    1.640000
   2 P    9.880000
   2 P    5.800000
   3 P    5.050000
   3 P    3.230000
   3 P    2.060000
   3 D    7.200000
   3 D    4.400000
   3 D    2.690000
   3 D    1.640000
   4 F    5.400000
   4 F    3.550000
   5 G    4.500000

 Atom Type    3  (H)
 ==============

 Valence Basis Sets:   4
 -----------------------
   1 S    0.690000
   1 S    0.920000
   1 S    1.580000
   2 P    1.250000

 Charge Fitting Sets (for the computation of the Coulomb Potential):  11
 -----------------------------------------------------------------------
   1 S    3.160000
   1 S    2.090000
   1 S    1.380000
   2 S    1.500000
   2 P    4.000000
   2 P    2.650000
   2 P    1.750000
   3 D    4.000000
   3 D    2.500000
   4 F    3.000000
   5 G    4.000000

 Atom Type    4  (C)
 ==============

 Valence Basis Sets:   9
 -----------------------
   1 S    7.680000
   1 S    5.000000
   2 S    1.280000
   2 S    2.100000
   2 S    4.600000
   2 P    0.820000
   2 P    1.480000
   2 P    2.940000
   3 D    2.200000

 Charge Fitting Sets (for the computation of the Coulomb Potential):  22
 -----------------------------------------------------------------------
   1 S   15.360000
   2 S   17.530000
   2 S   12.070000
   2 S    8.310000
   2 S    5.730000
   3 S    5.780000
   3 S    4.220000
   3 S    3.080000
   3 S    2.250000
   3 S    1.640000
   2 P    9.880000
   2 P    5.800000
   3 P    5.050000
   3 P    3.230000
   3 P    2.060000
   3 D    7.200000
   3 D    4.400000
   3 D    2.690000
   3 D    1.640000
   4 F    5.400000
   4 F    3.550000
   5 G    4.500000

 Atom Type    5  (H)
 ==============

 Valence Basis Sets:   4
 -----------------------
   1 S    0.690000
   1 S    0.920000
   1 S    1.580000
   2 P    1.250000

 Charge Fitting Sets (for the computation of the Coulomb Potential):  11
 -----------------------------------------------------------------------
   1 S    3.160000
   1 S    2.090000
   1 S    1.380000
   2 S    1.500000
   2 P    4.000000
   2 P    2.650000
   2 P    1.750000
   3 D    4.000000
   3 D    2.500000
   4 F    3.000000
   5 G    4.000000

 Atom Type    6  (O)
 ==============

 Valence Basis Sets:   9
 -----------------------
   1 S    9.800000
   1 S    6.800000
   2 S    7.580000
   2 S    2.880000
   2 S    1.720000
   2 P    4.080000
   2 P    2.080000
   2 P    1.120000
   3 D    2.000000

 Charge Fitting Sets (for the computation of the Coulomb Potential):  22
 -----------------------------------------------------------------------
   1 S   19.600000
   2 S   22.600000
   2 S   15.680000
   2 S   10.890000
   2 S    7.560000
   3 S    7.690000
   3 S    5.650000
   3 S    4.150000
   3 S    3.050000
   3 S    2.240000
   2 P   12.860000
   2 P    7.680000
   3 P    6.780000
   3 P    4.390000
   3 P    2.840000
   3 D    8.800000
   3 D    5.580000
   3 D    3.530000
   3 D    2.240000
   4 F    6.200000
   4 F    3.700000
   5 G    4.500000


 BAS: List of all Elementary Cartesian Basis Functions
 =====================================================

 The numbering in the list below (to the right of the function characteristics) is referred
 to in print-outs of MO eigenvectors and Mulliken populations in the BAS representation
 (as contrasted to the SFO representation).

 Notes:
 1. The functions are characterized by a polynomial prefactor (powers of x,y,z and r) and
    an exponential decay factor alpha.
 2. Since the basis sets are specific for an atom TYPE, the individual functions occur on
    all atoms of that type.
 3. The word 'Core' in the left margin signals that it is a Core Function (CF) : not a
    degree of freedom in the valence set, but only used to ensure orthogonalization of
    the other valence basis functions on the frozen Core Orbitals.


 (power of) X  Y  Z  R     Alpha  on Atom
            ==========     =====     ==========

 N                                    1    2    3    4
                                  ---------------------------------------------------------------------------
            0  0  0  0     8.740      1   21   41   61
            0  0  0  0     5.900      2   22   42   62
            0  0  0  1     5.150      3   23   43   63
            0  0  0  1     2.500      4   24   44   64
            0  0  0  1     1.500      5   25   45   65
            1  0  0  0     3.680      6   26   46   66
            0  1  0  0     3.680      7   27   47   67
            0  0  1  0     3.680      8   28   48   68
            1  0  0  0     1.880      9   29   49   69
            0  1  0  0     1.880     10   30   50   70
            0  0  1  0     1.880     11   31   51   71
            1  0  0  0     1.000     12   32   52   72
            0  1  0  0     1.000     13   33   53   73
            0  0  1  0     1.000     14   34   54   74
            2  0  0  0     2.200     15   35   55   75
            1  1  0  0     2.200     16   36   56   76
            1  0  1  0     2.200     17   37   57   77
            0  2  0  0     2.200     18   38   58   78
            0  1  1  0     2.200     19   39   59   79
            0  0  2  0     2.200     20   40   60   80

 C                                    5    6    7    8    9
                                  ---------------------------------------------------------------------------
            0  0  0  0     7.680     81  101  121  141  161
            0  0  0  0     5.000     82  102  122  142  162
            0  0  0  1     1.280     83  103  123  143  163
            0  0  0  1     2.100     84  104  124  144  164
            0  0  0  1     4.600     85  105  125  145  165
            1  0  0  0     0.820     86  106  126  146  166
            0  1  0  0     0.820     87  107  127  147  167
            0  0  1  0     0.820     88  108  128  148  168
            1  0  0  0     1.480     89  109  129  149  169
            0  1  0  0     1.480     90  110  130  150  170
            0  0  1  0     1.480     91  111  131  151  171
            1  0  0  0     2.940     92  112  132  152  172
            0  1  0  0     2.940     93  113  133  153  173
            0  0  1  0     2.940     94  114  134  154  174
            2  0  0  0     2.200     95  115  135  155  175
            1  1  0  0     2.200     96  116  136  156  176
            1  0  1  0     2.200     97  117  137  157  177
            0  2  0  0     2.200     98  118  138  158  178
            0  1  1  0     2.200     99  119  139  159  179
            0  0  2  0     2.200    100  120  140  160  180

 H                                   10   11   12   13   14   15   16   17   18   19   20   21
                                  ---------------------------------------------------------------------------
            0  0  0  0     0.690    181  187  193  199  205  211  217  223  229  235  241  247
            0  0  0  0     0.920    182  188  194  200  206  212  218  224  230  236  242  248
            0  0  0  0     1.580    183  189  195  201  207  213  219  225  231  237  243  249
            1  0  0  0     1.250    184  190  196  202  208  214  220  226  232  238  244  250
            0  1  0  0     1.250    185  191  197  203  209  215  221  227  233  239  245  251
            0  0  1  0     1.250    186  192  198  204  210  216  222  228  234  240  246  252

 C                                   22
                                  ---------------------------------------------------------------------------
            0  0  0  0     7.680    253
            0  0  0  0     5.000    254
            0  0  0  1     1.280    255
            0  0  0  1     2.100    256
            0  0  0  1     4.600    257
            1  0  0  0     0.820    258
            0  1  0  0     0.820    259
            0  0  1  0     0.820    260
            1  0  0  0     1.480    261
            0  1  0  0     1.480    262
            0  0  1  0     1.480    263
            1  0  0  0     2.940    264
            0  1  0  0     2.940    265
            0  0  1  0     2.940    266
            2  0  0  0     2.200    267
            1  1  0  0     2.200    268
            1  0  1  0     2.200    269
            0  2  0  0     2.200    270
            0  1  1  0     2.200    271
            0  0  2  0     2.200    272

 H                                   23   24   25
                                  ---------------------------------------------------------------------------
            0  0  0  0     0.690    273  279  285
            0  0  0  0     0.920    274  280  286
            0  0  0  0     1.580    275  281  287
            1  0  0  0     1.250    276  282  288
            0  1  0  0     1.250    277  283  289
            0  0  1  0     1.250    278  284  290

 O                                   26
                                  ---------------------------------------------------------------------------
            0  0  0  0     9.800    291
            0  0  0  0     6.800    292
            0  0  0  1     7.580    293
            0  0  0  1     2.880    294
            0  0  0  1     1.720    295
            1  0  0  0     4.080    296
            0  1  0  0     4.080    297
            0  0  1  0     4.080    298
            1  0  0  0     2.080    299
            0  1  0  0     2.080    300
            0  0  1  0     2.080    301
            1  0  0  0     1.120    302
            0  1  0  0     1.120    303
            0  0  1  0     1.120    304
            2  0  0  0     2.000    305
            1  1  0  0     2.000    306
            1  0  1  0     2.000    307
            0  2  0  0     2.000    308
            0  1  1  0     2.000    309
            0  0  2  0     2.000    310

 Total number of charge fitting functions (nprimf)      1674
 Total number of Cartesian basis functions (naos)        310
 Total number of Cartesian core functions  (ncos)          0

1
 ***************************************************************************************************



                                              ***********************
                                              *  T E C H N I C A L  *
                                              ***********************
  



 =============================================================
 P A R A L L E L I Z A T I O N  and  V E C T O R I Z A T I O N
 =============================================================
  
 Nr of parallel processes:                                4
 Maximum vector length in NumInt loops:                 128



 =====================
 S C F   U P D A T E S
 =====================
  
 Max. nr. of cycles:                               300
 Convergence criterion:                              0.0000010000
   secondary criterion:                              0.0010000000

 Mix parameter (when DIIS does not apply):           0.2000000000
 Mixed ADIIS+SDIIS will be used                  
    Max number of expansion vectors:                10
    Pure ADIIS when Max([F,P]) is above              0.1000000000
    Pure SDIIS when Max([F,P]) is below              0.0010000000
 Automatic ElectronSmearing (in case of problematic SCF convergence) disabled



 =================
 P R E C I S I O N  ***  (General: NumInt, NeglectFunctionTails, ...)  ***
 =================
  

 NumInt:           Target precision:                 4.0000000000
 -------           Initial precision:                4.0000000000
                   Min. precision (optimization):    4.0000000000

 Neglect Functions:          Basis functions:        0.1000000000E-05
 ------------------          Fit functions:          0.1000000000E-05



 ===========================
 L I N E A R   S C A L I N G
 ===========================
  

 Cut-off radii density fit:                        0.1000000000E-07
 Overlap cut-off criterion AO matrix elements:     0.1000000000E-05
 Cut-offs for Coulomb potential and fitted density:0.1000000000E-07
 Cut-off criterion for Coulomb multipole terms:    0.1000000000E-07
 Progressive Convergence parameter:                 0.000000000    
1
 ***************************************************************************************************



                                            ***************************
                                            *  C O M P U T A T I O N  *
                                            ***************************
  

 Number of elements of the density matrix on this node (used, total):     12400     48205



 ===========================================
 Numerical Integration : Fuzzy Cells (Becke)
 ===========================================
  
 Becke grid quality: NORMAL         
  
 Lebedev angular grid order:             min:  11 max:  23
 Nr. of radial points:                   min:  46 max:  52

 Total nr. of points:     161806
 Nr. of blocks:             1265
 Block length:               128
 Nr. of dummy points:        114


 Test of Precision of the Numerical Integration Grid
 ===================================================

 Integral of the Total Core Density:                   0.00000000000000



 ========================
 Density Fitting (zlmFit)
 ========================
  
 ZlmFit Fit Quality: NORMAL         
  
 Max L-expansion:                        min:   5 max:   6
 Nr. of radial interpolation points:     min:  36 max:  54



 ======================
 RI Hartree-Fock Scheme
 ======================
  
 Fit Set Quality     : NORMAL
 Threshold Quality   : NORMAL
 Integration Quality : NORMAL
 Fit Generation Method : AUTO
 Response Quality    : DEFAULT
 Is Range Separated  :  F
 
 RIHartreeFock Dependency: number of modified vectors:          20



 =====
 S C F  ***  ScaSCF  ***
 =====
  
 Initial density matrix is calculated as sum of fragments

 CYCLE    1
 SCF Error: norm([F,P])=      1.812914104799, max([F,P])=      1.145291024669
 orbitals (Q,E):
 ---------------
 A :34...53          ( 2.00    -0.5657)  ( 2.00    -0.5482)  ( 2.00    -0.5375)  ( 2.00    -0.5257)
                     ( 2.00    -0.5217)  ( 2.00    -0.4941)  ( 2.00    -0.4891)  ( 2.00    -0.3991)
                     ( 2.00    -0.3775)  ( 2.00    -0.3561)  ( 0.00    -0.1984)  ( 0.00    -0.1607)
                     ( 0.00    -0.1317)  ( 0.00    -0.1200)  ( 0.00    -0.1052)  ( 0.00    -0.0973)
                     ( 0.00    -0.0793)  ( 0.00    -0.0790)  ( 0.00    -0.0753)  ( 0.00    -0.0629)

 CYCLE    2
   MIX coefficients:  0.8000  0.2000
 SCF Error: norm([F,P])=      0.299377118662, max([F,P])=      0.066907652781
 orbitals (Q,E):
 ---------------
 A :34...44          ( 2.00    -0.5541)  ( 2.00    -0.5453)  ( 2.00    -0.5418)  ( 2.00    -0.5376)
                     ( 2.00    -0.5226)  ( 2.00    -0.5057)  ( 2.00    -0.5012)  ( 2.00    -0.4117)
                     ( 2.00    -0.3876)  ( 2.00    -0.3691)  ( 0.00    -0.1788)

 CYCLE    3
  SDIIS (wt  0.000): -0.9376  1.9376
 A-DIIS (wt  1.000):  0.0000  1.0000
  DIIS coefficients:  0.0000  1.0000
 SCF Error: norm([F,P])=      0.161130241854, max([F,P])=      0.036783499217
 orbitals (Q,E):
 ---------------
 A :34...44          ( 2.00    -0.5677)  ( 2.00    -0.5671)  ( 2.00    -0.5581)  ( 2.00    -0.5393)
                     ( 2.00    -0.5379)  ( 2.00    -0.5057)  ( 2.00    -0.4449)  ( 2.00    -0.4249)
                     ( 2.00    -0.4195)  ( 2.00    -0.4027)  ( 0.00    -0.1359)

 CYCLE    4
  SDIIS (wt  0.000):  1.3826 -1.3634  0.9809
 A-DIIS (wt  1.000):  0.0000  0.5421  0.4579
  DIIS coefficients:  0.0000  0.5421  0.4579
 SCF Error: norm([F,P])=      0.216077411352, max([F,P])=      0.046647010463
 orbitals (Q,E):
 ---------------
 A :34...44          ( 2.00    -0.5620)  ( 2.00    -0.5576)  ( 2.00    -0.5507)  ( 2.00    -0.5427)
                     ( 2.00    -0.5300)  ( 2.00    -0.5248)  ( 2.00    -0.4627)  ( 2.00    -0.4319)
                     ( 2.00    -0.4110)  ( 2.00    -0.3886)  ( 0.00    -0.1390)

 CYCLE    5
  SDIIS (wt  0.918): -0.2600  0.4785  0.0961  0.6854
 A-DIIS (wt  0.082):  0.0000  0.0000  0.0000  1.0000
  DIIS coefficients: -0.2386  0.4391  0.0882  0.7113
 SCF Error: norm([F,P])=      0.052363873008, max([F,P])=      0.009145293408
 orbitals (Q,E):
 ---------------
 A :34...44          ( 2.00    -0.5610)  ( 2.00    -0.5578)  ( 2.00    -0.5508)  ( 2.00    -0.5415)
                     ( 2.00    -0.5289)  ( 2.00    -0.5241)  ( 2.00    -0.4614)  ( 2.00    -0.4329)
                     ( 2.00    -0.4095)  ( 2.00    -0.3900)  ( 0.00    -0.1398)

 CYCLE    6
  SDIIS (wt  0.983): -0.0904  0.1538  0.0239  0.3445  0.5682
 A-DIIS (wt  0.017):  0.0000  0.0000  0.0000  0.0145  0.9855
  DIIS coefficients: -0.0888  0.1511  0.0235  0.3388  0.5754
 SCF Error: norm([F,P])=      0.016316444210, max([F,P])=      0.002711572200
 orbitals (Q,E):
 ---------------
 A :34...44          ( 2.00    -0.5614)  ( 2.00    -0.5580)  ( 2.00    -0.5510)  ( 2.00    -0.5423)
                     ( 2.00    -0.5292)  ( 2.00    -0.5244)  ( 2.00    -0.4620)  ( 2.00    -0.4329)
                     ( 2.00    -0.4098)  ( 2.00    -0.3899)  ( 0.00    -0.1398)

 CYCLE    7
  SDIIS (wt  0.999):  0.0117 -0.0175  0.0052  0.0542  0.2659  0.6805
 A-DIIS (wt  0.001):  0.0000  0.0000  0.0000  0.0000  0.0000  1.0000
  DIIS coefficients:  0.0117 -0.0175  0.0052  0.0542  0.2655  0.6809
 SCF Error: norm([F,P])=      0.004227932886, max([F,P])=      0.001139480214
 orbitals (Q,E):
 ---------------
 A :34...44          ( 2.00    -0.5612)  ( 2.00    -0.5578)  ( 2.00    -0.5508)  ( 2.00    -0.5421)
                     ( 2.00    -0.5291)  ( 2.00    -0.5243)  ( 2.00    -0.4619)  ( 2.00    -0.4327)
                     ( 2.00    -0.4097)  ( 2.00    -0.3897)  ( 0.00    -0.1397)

 CYCLE    8
[...]
                                   -1.06%    84 A              14.877  0.00     1 rest
      -0.282  0.00    60 A         65.21%    47 A               3.240  0.00     1 rest
                                   15.56%    46 A               2.988  0.00     1 rest
                                    5.36%    43 A               1.951  0.00     1 rest
                                    5.14%    52 A               4.830  0.00     1 rest
                                    3.60%    12 A              -4.035  0.00     2 CH2OH
                                    1.21%    15 A              -1.096  0.00     2 CH2OH
      -0.164  0.00    61 A         26.68%    51 A               4.632  0.00     1 rest
                                   25.50%    49 A               3.588  0.00     1 rest
                                   17.79%    50 A               4.041  0.00     1 rest
                                    9.95%     9 A             -13.227  0.00     2 CH2OH
                                    6.70%    44 A               1.974  0.00     1 rest
                                    5.75%    45 A               2.782  0.00     1 rest
                                    2.96%    18 A               1.158  0.00     2 CH2OH
                                    2.48%    35 A              -5.544  2.00     1 rest
                                    1.55%     7 A             -19.496  2.00     2 CH2OH
                                    1.47%     4 A             -27.420  2.00     2 CH2OH
                                    1.43%    59 A               6.948  0.00     1 rest
                                    1.39%    48 A               3.314  0.00     1 rest
                                   -1.33%    84 A              14.877  0.00     1 rest
                                    1.02%    28 A              17.318  0.00     2 CH2OH
       0.163  0.00    62 A         46.91%    48 A               3.314  0.00     1 rest
                                   32.88%    51 A               4.632  0.00     1 rest
                                    4.94%    50 A               4.041  0.00     1 rest
                                    3.27%    45 A               2.782  0.00     1 rest
                                    1.96%    44 A               1.974  0.00     1 rest
                                    1.33%    49 A               3.588  0.00     1 rest
                                    1.17%    59 A               6.948  0.00     1 rest
                                   -1.02%    14 A              -1.454  0.00     2 CH2OH
       0.177  0.00    63 A         51.73%    53 A               5.496  0.00     1 rest
                                   15.08%    12 A              -4.035  0.00     2 CH2OH
                                   10.69%    58 A               6.862  0.00     1 rest
                                    9.63%    41 A               1.769  0.00     1 rest
                                    2.31%    65 A               8.582  0.00     1 rest
                                    1.94%    19 A               3.463  0.00     2 CH2OH
                                    1.68%    56 A               6.285  0.00     1 rest
                                    1.07%    46 A               2.988  0.00     1 rest
       0.571  0.00    64 A         44.60%    49 A               3.588  0.00     1 rest
                                   14.33%    13 A              -3.480  0.00     2 CH2OH
                                   12.81%     9 A             -13.227  0.00     2 CH2OH
                                    7.78%    50 A               4.041  0.00     1 rest
                                   -7.15%    14 A              -1.454  0.00     2 CH2OH
                                    4.88%    35 A              -5.544  2.00     1 rest
                                    4.82%    55 A               5.900  0.00     1 rest
                                    4.32%    11 A              -4.917  0.00     2 CH2OH
                                    2.55%    44 A               1.974  0.00     1 rest
                                    2.45%    10 A              -6.074  0.00     2 CH2OH
                                    1.51%    32 A              -8.102  2.00     1 rest
                                    1.49%    57 A               6.338  0.00     1 rest
                                    1.41%    59 A               6.948  0.00     1 rest
                                   -1.38%    84 A              14.877  0.00     1 rest
                                    1.36%     4 A             -27.420  2.00     2 CH2OH
                                    1.34%     7 A             -19.496  2.00     2 CH2OH
                                    1.25%    51 A               4.632  0.00     1 rest
                                   -1.18%    16 A               0.125  0.00     2 CH2OH
       0.614  0.00    65 A         43.65%    50 A               4.041  0.00     1 rest
                                   19.18%    13 A              -3.480  0.00     2 CH2OH
                                    6.82%    59 A               6.948  0.00     1 rest
                                    4.75%    57 A               6.338  0.00     1 rest
                                    3.77%    10 A              -6.074  0.00     2 CH2OH
                                    2.99%    55 A               5.900  0.00     1 rest
                                    2.33%    44 A               1.974  0.00     1 rest
                                    2.01%    48 A               3.314  0.00     1 rest
                                    1.88%    45 A               2.782  0.00     1 rest
                                    1.73%    11 A              -4.917  0.00     2 CH2OH
                                    1.38%    17 A               0.933  0.00     2 CH2OH
                                    1.13%    72 A              10.541  0.00     1 rest
                                    1.07%    18 A               1.158  0.00     2 CH2OH
                                    1.05%     9 A             -13.227  0.00     2 CH2OH
                                    1.02%    66 A               8.625  0.00     1 rest
       0.944  0.00    66 A         74.08%    52 A               4.830  0.00     1 rest
                                    6.44%    54 A               5.707  0.00     1 rest
                                    6.10%    53 A               5.496  0.00     1 rest
                                    4.79%    12 A              -4.035  0.00     2 CH2OH
                                    3.98%    47 A               3.240  0.00     1 rest
                                    1.02%    61 A               7.620  0.00     1 rest



 =======================================================================
 Electrostatic potential at the Nuclei due to electrons and other nuclei
 =======================================================================
  
         Atom                  Potential
         ----                  ---------
     1)   N                  18.21734025
     2)   N                  18.23175703
     3)   N                  18.12883640
     4)   N                  18.21721941
     5)   C                  14.55548843
     6)   C                  14.49459366
     7)   C                  14.52763473
     8)   C                  14.55637394
     9)   C                  14.55546190
    10)   C                  14.52720613
    11)   H                   0.96660701
    12)   H                   0.95921002
    13)   H                   0.92683992
    14)   H                   0.92734283
    15)   H                   0.92927053
    16)   H                   0.93532802
    17)   H                   0.95826794
    18)   H                   0.95510025
    19)   H                   0.95908285
    20)   H                   0.96654087
    21)   H                   0.92867862
    22)   H                   0.93512898
    23)   H                   0.89415646
    24)   O                  22.17509377
    25)   H                   0.81785277
    26)   H                   0.82463797
 Mulliken charges used for AMS results%charges...


    =====================
     CALCULATION RESULTS
    =====================

Energy (hartree)            -0.25038018


--------------
Atomic charges
--------------
  Index   Atom    Charge
      1      N   -0.3965
      2      N   -0.3788
      3      N   -0.2896
      4      N   -0.3963
      5      C    0.6543
      6      C    0.9026
      7      C    0.6890
      8      C    0.6064
      9      C    0.6542
     10      C    0.6883
     11      H   -0.1359
     12      H   -0.1560
     13      H   -0.1471
     14      H   -0.1468
     15      H   -0.1501
     16      H   -0.0848
     17      H   -0.1449
     18      H   -0.1572
     19      H   -0.1559
     20      H   -0.1363
     21      H   -0.1504
     22      H   -0.0845
     23      H    0.0531
     24      O   -0.5321
     25      H    0.2479
     26      H    0.1474


Dipole moment vector    (Debye):     3.66896173    2.66523487    6.99122312
              magnitude (Debye):     8.33318413


-----------------------
Molecular orbitals info
-----------------------
n orbitals:              299
n spin:                    1

Note: only printing virtual orbitals with
      energy smaller than HOMO + 100. eV

HOMO (eV):             -10.6084
LUMO (eV):              -3.8015
HOMO-LUMO gap (eV):      6.8069

   Index   Energy (eV)    Occupation
     237       88.6727         0.000       
     236       86.6681         0.000       
     235       85.8965         0.000       
     234       85.1000         0.000       
     233       79.9363         0.000       
     232       79.2665         0.000       
     231       79.2512         0.000       
     230       77.5262         0.000       
     229       77.1499         0.000       
     228       76.3776         0.000       
     227       76.0421         0.000       
     226       75.5521         0.000       
     225       74.5179         0.000       
     224       73.4015         0.000       
     223       72.3297         0.000       
     222       71.4257         0.000       
     221       70.0490         0.000       
     220       69.8731         0.000       
     219       68.8022         0.000       
     218       67.2940         0.000       
     217       66.5031         0.000       
     216       66.2166         0.000       
     215       65.5179         0.000       
     214       65.4209         0.000       
     213       64.8918         0.000       
     212       63.7556         0.000       
     211       63.5107         0.000       
     210       63.0088         0.000       
     209       62.7172         0.000       
     208       61.2053         0.000       
     207       60.5186         0.000       
     206       59.6149         0.000       
     205       59.4604         0.000       
     204       58.3811         0.000       
     203       58.3594         0.000       
     202       57.8141         0.000       
     201       57.5267         0.000       
     200       56.3770         0.000       
     199       55.5130         0.000       
     198       55.3336         0.000       
     197       54.6123         0.000       
     196       54.2193         0.000       
     195       52.6779         0.000       
     194       52.3843         0.000       
     193       51.3943         0.000       
     192       50.4747         0.000       
     191       50.2448         0.000       
     190       49.9286         0.000       
     189       48.8829         0.000       
     188       48.3527         0.000       
     187       47.7703         0.000       
     186       47.4969         0.000       
     185       46.9537         0.000       
     184       46.2387         0.000       
     183       46.1760         0.000       
     182       46.0060         0.000       
     181       45.5103         0.000       
     180       44.8010         0.000       
     179       44.7835         0.000       
     178       43.9887         0.000       
     177       43.9086         0.000       
     176       43.2873         0.000       
     175       42.6192         0.000       
     174       42.5460         0.000       
     173       42.1508         0.000       
     172       40.8620         0.000       
     171       40.8026         0.000       
     170       40.5389         0.000       
     169       40.0898         0.000       
     168       39.0164         0.000       
     167       38.3874         0.000       
     166       37.6890         0.000       
     165       37.4427         0.000       
     164       36.4704         0.000       
     163       35.2084         0.000       
     162       34.9136         0.000       
     161       34.8305         0.000       
     160       34.5595         0.000       
     159       34.3008         0.000       
     158       34.0467         0.000       
     157       33.7066         0.000       
     156       33.5796         0.000       
     155       33.2277         0.000       
     154       32.6519         0.000       
     153       32.3187         0.000       
     152       32.2162         0.000       
     151       31.9570         0.000       
     150       31.5642         0.000       
     149       31.2313         0.000       
     148       30.5467         0.000       
     147       30.2388         0.000       
     146       30.0549         0.000       
     145       29.5749         0.000       
     144       29.1735         0.000       
     143       28.7753         0.000       
     142       28.7220         0.000       
     141       28.3258         0.000       
     140       27.7994         0.000       
     139       27.6133         0.000       
     138       26.7443         0.000       
     137       26.5837         0.000       
     136       26.2261         0.000       
     135       26.1423         0.000       
     134       25.7219         0.000       
     133       25.1408         0.000       
     132       24.7932         0.000       
     131       24.5480         0.000       
     130       23.9622         0.000       
     129       23.6834         0.000       
     128       23.0974         0.000       
     127       22.9055         0.000       
     126       22.2120         0.000       
     125       21.5748         0.000       
     124       21.3335         0.000       
     123       20.4728         0.000       
     122       20.4191         0.000       
     121       20.1419         0.000       
     120       19.6429         0.000       
     119       17.8884         0.000       
     118       17.7273         0.000       
     117       17.6946         0.000       
     116       17.3904         0.000       
     115       15.9488         0.000       
     114       15.3448         0.000       
     113       14.4091         0.000       
     112       14.1907         0.000       
     111       13.3631         0.000       
     110       12.8219         0.000       
     109       12.2022         0.000       
     108       11.7425         0.000       
     107       11.7172         0.000       
     106       11.5872         0.000       
     105       11.3958         0.000       
     104       11.0856         0.000       
     103       10.6119         0.000       
     102       10.4644         0.000       
     101        9.9005         0.000       
     100        9.5301         0.000       
      99        9.4679         0.000       
      98        9.0709         0.000       
      97        8.7875         0.000       
      96        8.6511         0.000       
      95        8.6231         0.000       
      94        8.2931         0.000       
      93        8.2508         0.000       
      92        7.8326         0.000       
      91        7.2751         0.000       
      90        7.0759         0.000       
      89        6.6549         0.000       
      88        6.5147         0.000       
      87        6.0367         0.000       
      86        6.0013         0.000       
      85        5.7779         0.000       
      84        5.5891         0.000       
      83        5.1018         0.000       
      82        5.0561         0.000       
      81        4.8836         0.000       
      80        4.3753         0.000       
      79        4.3443         0.000       
      78        4.2155         0.000       
      77        3.9494         0.000       
      76        3.9232         0.000       
      75        3.6072         0.000       
      74        3.3538         0.000       
      73        2.9016         0.000       
      72        2.8782         0.000       
      71        2.6058         0.000       
      70        2.0573         0.000       
      69        1.8988         0.000       
      68        1.8317         0.000       
      67        1.8045         0.000       
      66        0.9444         0.000       
      65        0.6139         0.000       
      64        0.5710         0.000       
      63        0.1767         0.000       
      62        0.1627         0.000       
      61       -0.1641         0.000       
      60       -0.2819         0.000       
      59       -0.5473         0.000       
      58       -0.8027         0.000       
      57       -0.8464         0.000       
      56       -1.0166         0.000       
      55       -1.5095         0.000       
      54       -1.5734         0.000       
      53       -1.7597         0.000       
      52       -1.7731         0.000       
      51       -1.8804         0.000       
      50       -2.2293         0.000       
      49       -2.4852         0.000       
      48       -2.6331         0.000       
      47       -2.9070         0.000       
      46       -3.0440         0.000       
      45       -3.4695         0.000       
      44       -3.8015         0.000 < LUMO
      43      -10.6084         2.000 < HOMO
      42      -11.1512         2.000       
      41      -11.7765         2.000       
      40      -12.5673         2.000       
      39      -14.2684         2.000       
      38      -14.3987         2.000       
      37      -14.7517         2.000       
      36      -14.9902         2.000       
      35      -15.1798         2.000       
      34      -15.2729         2.000       
      33      -15.5461         2.000       
      32      -16.4911         2.000       
      31      -16.6302         2.000       
      30      -17.1003         2.000       
      29      -17.1079         2.000       
      28      -17.8522         2.000       
      27      -18.1039         2.000       
      26      -18.1870         2.000       
      25      -18.4999         2.000       
      24      -18.5834         2.000       
      23      -19.5590         2.000       
      22      -20.7413         2.000       
      21      -22.1735         2.000       
      20      -22.5862         2.000       
      19      -22.9826         2.000       
      18      -24.2031         2.000       
      17      -24.3935         2.000       
      16      -28.3910         2.000       
      15      -29.2068         2.000       
      14      -30.2654         2.000       
      13      -32.0435         2.000       
      12      -33.3094         2.000       
      11     -282.6020         2.000       
      10     -282.6054         2.000       
       9     -282.6083         2.000       
       8     -283.4142         2.000       
       7     -283.4240         2.000       
       6     -284.2430         2.000       
       5     -393.8526         2.000       
       4     -394.2079         2.000       
       3     -394.2123         2.000       
       2     -396.6647         2.000       
       1     -525.4645         2.000       

AMS application finished. Exiting.
NORMAL TERMINATION
     Total cpu time:     110.76
  Total system time:       2.09
 Total elapsed time:     116.78
