

 Parallel Execution: Process Information
 ==============================================================================
 Rank   Node Name                              NodeID   MyNodeRank  NodeMaster
    0   Amandas-Mac-mini.local                    0          0          0
    1   Amandas-Mac-mini.local                    0          1         -1
    2   Amandas-Mac-mini.local                    0          2         -1
    3   Amandas-Mac-mini.local                    0          3         -1
 ==============================================================================


May use up to 7812MB of RAM as shared memory on node 0

 *******************************************************************************
 *                                                                             *
 *  --------------------------------                                           *
 *   Amsterdam Modeling Suite (AMS)              2023.103                      *
 *  --------------------------------                                           *
 *                                               r114206 2023-08-04            *
 *                                                                             *
 *                                                                             *
 *                              =================                              *
 *                              |               |                              *
 *                              |     A M S     |                              *
 *                              |               |                              *
 *                              =================                              *
 *                                                                             *
 *                                                                             *
 *   Online information and documentation:  https://www.scm.com/support/       *
 *   E-mail:  support@scm.com   info@scm.com                                   *
 *                                                                             *
 *   Scientific publications using AMS results must be properly referenced     *
 *   See the User Manuals (or the web site) for recommended citations          *
 *   The terms and conditions of the End User License Agreement apply to       *
 *   the use of AMS, https://www.scm.com/license-terms/                        *
 *                                                                             *
 **********************  x86_64_darwin_intel / openmpi  ************************
 
 Licensed to: Dr. Amanda Morgenstern / University of Colorado / Colorado Springs / Colorado / USA 2024-12-20 19:21:38
 SCM User ID: u21568
  
 AMS 2023.103  RunTime: May23-2025 14:10:19  ShM Nodes: 1  Procs: 4

 AMS jobname: ams
 AMS jobid  : 1671239612

 Start   directory: /Users/amorgenstern/Library/CloudStorage/OneDrive-UniversityofColoradoColoradoSprings/Research/ESI_ISF_Gertner_Redmon_Cook/manuscript/Final_AMS_Calcs/HEXS/Intermediate2_stabilities/tmp.amorgenstern.56484.0.noindex/
 Results directory: /Users/amorgenstern/Library/CloudStorage/OneDrive-UniversityofColoradoColoradoSprings/Research/ESI_ISF_Gertner_Redmon_Cook/manuscript/Final_AMS_Calcs/HEXS/Intermediate2_stabilities/HMT_I2_B3LYP_TZP_KlamtWater_fragments_noH2O_v2.CH2OH.results/
 Scratch directory: /tmp/amstmp_ams_kid0.1671239612/


 Communication costs MPI_COMM_WORLD:      1.201 usec per message,   0.0045 usec per 8-byte item
 Communication costs for intra-node:      0.489 usec per message,   0.0037 usec per 8-byte item

 RNG seed: 1908926022 1925566229 -27699468 1821340012 -605653607 -283963760 -871733736 1517336242



                      ************************************************************************
                      *  ADF 2023.103  RunTime: May23-2025 14:10:21  ShM Nodes: 1  Procs: 4  *
                      ************************************************************************
  
 Geometry symmetrized to: C1
 Geometry reoriented with symmetry: NOSYM

       ****************************
       * SINGLE POINT CALCULATION *
       ****************************
 
--------
Geometry
--------
Formula: CH3O
Atoms
  Index Symbol   x (angstrom)   y (angstrom)   z (angstrom)
      1      C     1.30194846     0.90094033     2.78081571       region=CH2OH adf.R=2.00
      2      H     3.03921335     0.09808826     3.17493064       region=CH2OH adf.R=1.30
      3      O     2.15670856     0.13481658     3.57115152       region=CH2OH adf.R=1.72
      4      H     1.83532811     1.59565599     2.13955832       region=CH2OH adf.R=1.30
      5      H     0.61061542     1.43607553     3.42751454       region=CH2OH adf.R=1.30
 
Total System Charge             1.00000
Bonding info available!
 
 
----------------
ADF Engine Input
----------------
 
 Basis
 Type TZP
 Core None
 End
 Save TAPE10
 ALLOW  FRACTIONAL
 XC
 Hybrid B3LYP
 End
 Title CH2OH fragment
 Relativity
 Level None
 End
 Symmetry NOSYM
 Solvation
 Surf Delley
 Solv name=Water cav0=0.0 cav1=0.0067639
 Charged method=CONJ
 C-Mat POT
 SCF VAR ALL
 CSMRSP
 End
 

 Title: CH2OH fragment

 *** adf ***



 ===========================
 A T T A C H E D   F I L E S
 ===========================
  



 ===============================
 M O D E L   P A R A M E T E R S
 ===============================
  
 DENSITY FUNCTIONAL POTENTIAL (scf)
    Hybrid:                            B3LYP                                   == Not Default ==

 SPIN  (restricted / unrestr.)
    Molecule:                          Restricted                               
    Fragments:                         Restricted                               

 OTHER ASPECTS
    Relativistic Corrections:          ---                                     == Not Default ==

    Nuclear Charge Density Model:      Point Charge Nuclei                      
    Core Treatment:                    Frozen Orbital(s)                        

    Hyperfine or Zeeman Interaction:   ---                                      

 SOLVATION
-------------------------------------------

  The Delley construction of COSMO surface surface is calculated

       Division Level for Surface Triangles (NDIV)                  3
       Final Division Level for Triangles (NFDIV)                   1
       Radius of the Solvent (RSOL)                           1.93000 angstr
  Dielectric Constant (EPSL)                                 78.39000

       COSMO equation is solved iteratively-               conjugate-gradient

       Maximun of Iterations for Charges (NCIX)                  1000
       Criterion for Charge convergence (CCNV)                1.0E-08

  COSMO charges included variationally in SCF

       COSMO included at every SCF cycle

  Geometry-dependent empirical factor                         0.00000

  C-Matrix calculated in cspmtx

  In cspmtx, C-Matrix calculated using fitted potential

-------------------------------------------



 Fragment File(s)
 ----------------
 C:
         file : /Users/amorgenstern/Library/CloudStorage/OneDrive-UniversityofColoradoColoradoSprings/Research/ESI_ISF_Gertner_Redmon_Cook/manuscript/Final_AMS_Calcs/HEXS/Intermediate2_stabilities/HMT_I2_B3LYP_TZP_KlamtWater_fragments_noH2O_v2.CH2OH.results/t21.A121E74.C
         jobid: 0
         title: Carbon (TZP)
 H:
         file : /Users/amorgenstern/Library/CloudStorage/OneDrive-UniversityofColoradoColoradoSprings/Research/ESI_ISF_Gertner_Redmon_Cook/manuscript/Final_AMS_Calcs/HEXS/Intermediate2_stabilities/HMT_I2_B3LYP_TZP_KlamtWater_fragments_noH2O_v2.CH2OH.results/t21.C53890E.H
         jobid: 0
         title: Hydrogen (TZP)
 O:
         file : /Users/amorgenstern/Library/CloudStorage/OneDrive-UniversityofColoradoColoradoSprings/Research/ESI_ISF_Gertner_Redmon_Cook/manuscript/Final_AMS_Calcs/HEXS/Intermediate2_stabilities/HMT_I2_B3LYP_TZP_KlamtWater_fragments_noH2O_v2.CH2OH.results/t21.78188EF7.O
         jobid: 0
         title: Oxygen (TZP)



 ===============
 G E O M E T R Y  ***  3D  Molecule  ***
 ===============
  

 ATOMS
 =====                            X Y Z                    CHARGE                     RADIUS
                                (Angstrom)             Nucl     +Core       At.Mass (Angstrom)
                       --------------------------    ----------------       ------- ----------
    1  C               1.3019    0.9009    2.7808      6.00      6.00       12.0000    2.0000
    2  H               3.0392    0.0981    3.1749      1.00      1.00        1.0078    1.3000
    3  O               2.1567    0.1348    3.5712      8.00      8.00       15.9949    1.7200
    4  H               1.8353    1.5957    2.1396      1.00      1.00        1.0078    1.3000
    5  H               0.6106    1.4361    3.4275      1.00      1.00        1.0078    1.3000


 FRAGMENTS
 =========                                     Atoms in this Fragment     Cart. coord.s (Angstrom)
                                               -------------------------------------------------------
    1  C                                                 1  C            1.3019    0.9009    2.7808
    2  H                                                 2  H            3.0392    0.0981    3.1749
    3  H                                                 4  H            1.8353    1.5957    2.1396
    4  H                                                 5  H            0.6106    1.4361    3.4275
    5  O                                                 3  O            2.1567    0.1348    3.5712


 Interatomic Distance Matrix (Angstrom)
 --------------------------------------

   1)     0.000
   2)     1.954   0.000
   3)     1.394   0.968   0.000
   4)     1.086   2.183   2.070   0.000
   5)     1.087   2.784   2.026   1.784   0.000

 Min. Distance =    0.9681
 Max. Distance =    2.7843



 =====================================
 S Y M M E T R Y ,   E L E C T R O N S
 =====================================
  
 Symmetry: NOSYM

 Irreducible Representations, including subspecies
 -------------------------------------------------
 A

 Symmetry is NOT used when fitting density


 Configuration of Valence Electrons
 ==================================
 ( determined in the SCF procedure )

 Total:   16

 Net Charge: 1 (Nuclei minus Electrons)

 Aufbau principle for MO occupations will be applied through SCF cycle no.     150
 Thereafter, the program will assign electrons to MOs that are spatially
 similar to the occupied MOs in a "reference" cycle ("KeepOrbitals").
 The reference cycle is always the PREVIOUS cycle: it will evolve with
 the SCF procedure.
1
 ***************************************************************************************************



                                      ****************************************
                                      *  B U I L D : (Fragments, Functions)  *
                                      ****************************************
  



 =======
 S F O s  ***  (Symmetrized Fragment Orbitals)  ***
 =======
  
 SFOs are linear combinations of (valence) Fragment Orbitals (FOs), such that the SFOs transform as the
 irreducible representations of the (molecular) symmetry group. Each SFO is therefore characterized by
 an irrep of the molecule and by a few (or only one) generating FOs.
 The SFOs constitute a symmetry-adapted basis for the Fock matrix. The MO eigenvector coefficients in
 this basis provide a direct interpretation of the MOs in terms of Frontier Orbital Theory.

 The SFOs are combined with auxiliary Core Functions (CFs) to ensure orthogonalization on the (frozen)
 Core Orbitals (COs). The Core-orthogonalized SFOs (CSFOs) constitute the true Fock basis.

 The FOs, and hence also the (C)SFOs are combinations of the elementary basis functions (BAS). The basis
 functions that participate in the description of the SFOs depend on the irrep. The indices of the
 involved functions are printed below for each irrep.
 (The complete list of primitive basis functions is printed in another section)

 Total nr. of (C)SFOs (summation over all irreps) :    56

 NOTE: a (C)SFO that is defined as a combination of more than one FO is usually NOT normalized.



                                       === A ===
 Nr. of SFOs :   56
 Cartesian basis functions that participate in this irrep (total number =    58) :
      1     2     3     4     5     6     9    12     7    10
     13     8    11    14    15    16    17    18    19    20
     21    22    23    24    25    26    27    28    29    30
     31    32    33    34    35    36    37    38    39    40
     41    42    43    44    47    50    45    48    51    46
     49    52    53    54    55    56    57    58

    SFO  (index         Fragment          Generating    Expansion in Fragment Orbitals
  indx  incl.CFs)   Occup   Orb.Energy   FragmentType  Coeff.   Orbital     on Fragment
 --------------------------------------------------------------------------------------
     1       1      2.000     -10.347 au  C             1.00      1 S               1
                        (    -281.544 eV)
     2       2      2.000      -0.564 au  C             1.00      2 S               1
                        (     -15.345 eV)
     3       3       --         0.402 au  C             1.00      3 S               1
                        (      10.943 eV)
     4       4       --         5.509 au  C             1.00      4 S               1
                        (     149.900 eV)
     5       5       --        50.546 au  C             1.00      5 S               1
                        (    1375.414 eV)
     6       6      0.667      -0.188 au  C             1.00      1 P:x             1
                        (      -5.110 eV)
     7       7       --         0.191 au  C             1.00      2 P:x             1
                        (       5.204 eV)
     8       8       --         2.089 au  C             1.00      3 P:x             1
                        (      56.851 eV)
     9       9      0.667      -0.188 au  C             1.00      1 P:y             1
                        (      -5.110 eV)
    10      10       --         0.191 au  C             1.00      2 P:y             1
                        (       5.204 eV)
    11      11       --         2.089 au  C             1.00      3 P:y             1
                        (      56.851 eV)
    12      12      0.667      -0.188 au  C             1.00      1 P:z             1
                        (      -5.110 eV)
    13      13       --         0.191 au  C             1.00      2 P:z             1
                        (       5.204 eV)
    14      14       --         2.089 au  C             1.00      3 P:z             1
                        (      56.851 eV)
    15      15       --         1.292 au  C             1.00      1 D:z2            1
                        (      35.150 eV)
    16      16       --         1.292 au  C             1.00      1 D:x2-y2         1
                        (      35.150 eV)
    17      17       --         1.292 au  C             1.00      1 D:xy            1
                        (      35.150 eV)
    18      18       --         1.292 au  C             1.00      1 D:xz            1
                        (      35.150 eV)
    19      19       --         1.292 au  C             1.00      1 D:yz            1
                        (      35.150 eV)
    20      20      1.000      -0.244 au  H             1.00      1 S               2
                        (      -6.641 eV)
    21      21       --         0.104 au  H             1.00      2 S               2
                        (       2.836 eV)
    22      22       --         1.564 au  H             1.00      3 S               2
                        (      42.568 eV)
    23      23       --         0.436 au  H             1.00      1 P:x             2
                        (      11.865 eV)
    24      24       --         0.436 au  H             1.00      1 P:y             2
                        (      11.865 eV)
    25      25       --         0.436 au  H             1.00      1 P:z             2
                        (      11.865 eV)
    26      26      1.000      -0.244 au  H             1.00      1 S               3
                        (      -6.641 eV)
    27      27       --         0.104 au  H             1.00      2 S               3
                        (       2.836 eV)
    28      28       --         1.564 au  H             1.00      3 S               3
                        (      42.568 eV)
    29      29       --         0.436 au  H             1.00      1 P:x             3
                        (      11.865 eV)
    30      30       --         0.436 au  H             1.00      1 P:y             3
                        (      11.865 eV)
    31      31       --         0.436 au  H             1.00      1 P:z             3
                        (      11.865 eV)
    32      32      1.000      -0.244 au  H             1.00      1 S               4
                        (      -6.641 eV)
    33      33       --         0.104 au  H             1.00      2 S               4
                        (       2.836 eV)
    34      34       --         1.564 au  H             1.00      3 S               4
                        (      42.568 eV)
    35      35       --         0.436 au  H             1.00      1 P:x             4
                        (      11.865 eV)
    36      36       --         0.436 au  H             1.00      1 P:y             4
                        (      11.865 eV)
    37      37       --         0.436 au  H             1.00      1 P:z             4
                        (      11.865 eV)
    38      38      2.000     -19.301 au  O             1.00      1 S               5
                        (    -525.210 eV)
    39      39      2.000      -0.971 au  O             1.00      2 S               5
                        (     -26.409 eV)
    40      40       --         0.840 au  O             1.00      3 S               5
                        (      22.860 eV)
    41      41       --        13.636 au  O             1.00      4 S               5
                        (     371.062 eV)
    42      42       --       123.735 au  O             1.00      5 S               5
                        (    3367.004 eV)
    43      43      1.333      -0.361 au  O             1.00      1 P:x             5
                        (      -9.826 eV)
    44      44       --         0.380 au  O             1.00      2 P:x             5
                        (      10.335 eV)
    45      45       --         3.936 au  O             1.00      3 P:x             5
                        (     107.096 eV)
    46      46      1.333      -0.361 au  O             1.00      1 P:y             5
                        (      -9.826 eV)
    47      47       --         0.380 au  O             1.00      2 P:y             5
                        (      10.335 eV)
    48      48       --         3.936 au  O             1.00      3 P:y             5
                        (     107.096 eV)
    49      49      1.333      -0.361 au  O             1.00      1 P:z             5
                        (      -9.826 eV)
    50      50       --         0.380 au  O             1.00      2 P:z             5
                        (      10.335 eV)
    51      51       --         3.936 au  O             1.00      3 P:z             5
                        (     107.096 eV)
    52      52       --         1.117 au  O             1.00      1 D:z2            5
                        (      30.395 eV)
    53      53       --         1.117 au  O             1.00      1 D:x2-y2         5
                        (      30.395 eV)
    54      54       --         1.117 au  O             1.00      1 D:xy            5
                        (      30.395 eV)
    55      55       --         1.117 au  O             1.00      1 D:xz            5
                        (      30.395 eV)
    56      56       --         1.117 au  O             1.00      1 D:yz            5
                        (      30.395 eV)



 ================================
 (Slater-type)  F U N C T I O N S  ***  (Basis and Fit)  ***
 ================================
  

 Atom Type    1  (C)
 ==============

 Valence Basis Sets:   9
 -----------------------
   1 S    7.680000
   1 S    5.000000
   2 S    1.280000
   2 S    2.100000
   2 S    4.600000
   2 P    0.820000
   2 P    1.480000
   2 P    2.940000
   3 D    2.200000

 Charge Fitting Sets (for the computation of the Coulomb Potential):  22
 -----------------------------------------------------------------------
   1 S   15.360000
   2 S   17.530000
   2 S   12.070000
   2 S    8.310000
   2 S    5.730000
   3 S    5.780000
   3 S    4.220000
   3 S    3.080000
   3 S    2.250000
   3 S    1.640000
   2 P    9.880000
   2 P    5.800000
   3 P    5.050000
   3 P    3.230000
   3 P    2.060000
   3 D    7.200000
   3 D    4.400000
   3 D    2.690000
   3 D    1.640000
   4 F    5.400000
   4 F    3.550000
   5 G    4.500000

 Atom Type    2  (H)
 ==============

 Valence Basis Sets:   4
 -----------------------
   1 S    0.690000
   1 S    0.920000
   1 S    1.580000
   2 P    1.250000

 Charge Fitting Sets (for the computation of the Coulomb Potential):  11
 -----------------------------------------------------------------------
   1 S    3.160000
   1 S    2.090000
   1 S    1.380000
   2 S    1.500000
   2 P    4.000000
   2 P    2.650000
   2 P    1.750000
   3 D    4.000000
   3 D    2.500000
   4 F    3.000000
   5 G    4.000000

 Atom Type    3  (O)
 ==============

 Valence Basis Sets:   9
 -----------------------
   1 S    9.800000
   1 S    6.800000
   2 S    7.580000
   2 S    2.880000
   2 S    1.720000
   2 P    4.080000
   2 P    2.080000
   2 P    1.120000
   3 D    2.000000

 Charge Fitting Sets (for the computation of the Coulomb Potential):  22
 -----------------------------------------------------------------------
   1 S   19.600000
   2 S   22.600000
   2 S   15.680000
   2 S   10.890000
   2 S    7.560000
   3 S    7.690000
   3 S    5.650000
   3 S    4.150000
   3 S    3.050000
   3 S    2.240000
   2 P   12.860000
   2 P    7.680000
   3 P    6.780000
   3 P    4.390000
   3 P    2.840000
   3 D    8.800000
   3 D    5.580000
   3 D    3.530000
   3 D    2.240000
   4 F    6.200000
   4 F    3.700000
   5 G    4.500000


 BAS: List of all Elementary Cartesian Basis Functions
 =====================================================

 The numbering in the list below (to the right of the function characteristics) is referred
 to in print-outs of MO eigenvectors and Mulliken populations in the BAS representation
 (as contrasted to the SFO representation).

 Notes:
 1. The functions are characterized by a polynomial prefactor (powers of x,y,z and r) and
    an exponential decay factor alpha.
 2. Since the basis sets are specific for an atom TYPE, the individual functions occur on
    all atoms of that type.
 3. The word 'Core' in the left margin signals that it is a Core Function (CF) : not a
    degree of freedom in the valence set, but only used to ensure orthogonalization of
    the other valence basis functions on the frozen Core Orbitals.


 (power of) X  Y  Z  R     Alpha  on Atom
            ==========     =====     ==========

 C                                    1
                                  ---------------------------------------------------------------------------
            0  0  0  0     7.680      1
            0  0  0  0     5.000      2
            0  0  0  1     1.280      3
            0  0  0  1     2.100      4
            0  0  0  1     4.600      5
            1  0  0  0     0.820      6
            0  1  0  0     0.820      7
            0  0  1  0     0.820      8
            1  0  0  0     1.480      9
            0  1  0  0     1.480     10
            0  0  1  0     1.480     11
            1  0  0  0     2.940     12
            0  1  0  0     2.940     13
            0  0  1  0     2.940     14
            2  0  0  0     2.200     15
            1  1  0  0     2.200     16
            1  0  1  0     2.200     17
            0  2  0  0     2.200     18
            0  1  1  0     2.200     19
            0  0  2  0     2.200     20

 H                                    2    3    4
                                  ---------------------------------------------------------------------------
            0  0  0  0     0.690     21   27   33
            0  0  0  0     0.920     22   28   34
            0  0  0  0     1.580     23   29   35
            1  0  0  0     1.250     24   30   36
            0  1  0  0     1.250     25   31   37
            0  0  1  0     1.250     26   32   38

 O                                    5
                                  ---------------------------------------------------------------------------
            0  0  0  0     9.800     39
            0  0  0  0     6.800     40
            0  0  0  1     7.580     41
            0  0  0  1     2.880     42
            0  0  0  1     1.720     43
            1  0  0  0     4.080     44
            0  1  0  0     4.080     45
            0  0  1  0     4.080     46
            1  0  0  0     2.080     47
            0  1  0  0     2.080     48
            0  0  1  0     2.080     49
            1  0  0  0     1.120     50
            0  1  0  0     1.120     51
            0  0  1  0     1.120     52
            2  0  0  0     2.000     53
            1  1  0  0     2.000     54
            1  0  1  0     2.000     55
            0  2  0  0     2.000     56
            0  1  1  0     2.000     57
            0  0  2  0     2.000     58

 Total number of charge fitting functions (nprimf)       318
 Total number of Cartesian basis functions (naos)         58
 Total number of Cartesian core functions  (ncos)          0

1
 ***************************************************************************************************



                                              ***********************
                                              *  T E C H N I C A L  *
                                              ***********************
  



 =============================================================
 P A R A L L E L I Z A T I O N  and  V E C T O R I Z A T I O N
 =============================================================
  
 Nr of parallel processes:                                4
 Maximum vector length in NumInt loops:                 128



 =====================
 S C F   U P D A T E S
 =====================
  
 Max. nr. of cycles:                               300
 Convergence criterion:                              0.0000010000
   secondary criterion:                              0.0010000000

 Mix parameter (when DIIS does not apply):           0.2000000000
 Mixed ADIIS+SDIIS will be used                  
    Max number of expansion vectors:                10
    Pure ADIIS when Max([F,P]) is above              0.1000000000
    Pure SDIIS when Max([F,P]) is below              0.0010000000
 Automatic ElectronSmearing (in case of problematic SCF convergence) disabled



 =================
 P R E C I S I O N  ***  (General: NumInt, NeglectFunctionTails, ...)  ***
 =================
  

 NumInt:           Target precision:                 4.0000000000
 -------           Initial precision:                4.0000000000
                   Min. precision (optimization):    4.0000000000

 Neglect Functions:          Basis functions:        0.1000000000E-05
 ------------------          Fit functions:          0.1000000000E-05



 ===========================
 L I N E A R   S C A L I N G
 ===========================
  

 Cut-off radii density fit:                        0.1000000000E-07
 Overlap cut-off criterion AO matrix elements:     0.1000000000E-05
 Cut-offs for Coulomb potential and fitted density:0.1000000000E-07
 Cut-off criterion for Coulomb multipole terms:    0.1000000000E-07
 Progressive Convergence parameter:                 0.000000000    
1
 ***************************************************************************************************



                                            ***************************
                                            *  C O M P U T A T I O N  *
                                            ***************************
  

 Number of elements of the density matrix on this node (used, total):       471      1711



 ===========================================
 Numerical Integration : Fuzzy Cells (Becke)
 ===========================================
  
 Becke grid quality: NORMAL         
  
 Lebedev angular grid order:             min:  11 max:  23
 Nr. of radial points:                   min:  46 max:  52

 Total nr. of points:      30782
 Nr. of blocks:              241
 Block length:               128
 Nr. of dummy points:         66


 Test of Precision of the Numerical Integration Grid
 ===================================================

 Integral of the Total Core Density:                   0.00000000000000


 -------------------------------------------
  COSMO surface
  Area             =          237.818
  Volume           =          322.817
  Number of Points =          589
 -------------------------------------------



 ========================
 Density Fitting (zlmFit)
 ========================
  
 ZlmFit Fit Quality: NORMAL         
  
 Max L-expansion:                        min:   5 max:   6
 Nr. of radial interpolation points:     min:  36 max:  54



 ======================
 RI Hartree-Fock Scheme
 ======================
  
 Fit Set Quality     : NORMAL
 Threshold Quality   : NORMAL
 Integration Quality : NORMAL
 Fit Generation Method : AUTO
 Response Quality    : DEFAULT
 Is Range Separated  :  F
 
 RIHartreeFock Dependency: number of modified vectors:           1



 =====
 S C F  ***  ScaSCF  ***
 =====
  
 Initial density matrix is calculated as sum of fragments

 CYCLE    1
 SCF Error: norm([F,P])=      3.211040937222, max([F,P])=      1.367219617455
 orbitals (Q,E):
 ---------------
 A :1...18           ( 2.00   -19.4098)  ( 2.00   -10.4499)  ( 2.00    -1.2567)  ( 2.00    -0.8474)
                     ( 2.00    -0.6654)  ( 2.00    -0.5812)  ( 2.00    -0.5062)  ( 2.00    -0.4747)
                     ( 0.00    -0.2657)  ( 0.00    -0.0567)  ( 0.00    -0.0143)  ( 0.00     0.0190)
                     ( 0.00     0.0606)  ( 0.00     0.1291)  ( 0.00     0.1412)  ( 0.00     0.1632)
                     ( 0.00     0.1984)  ( 0.00     0.2323)

 CYCLE    2
   MIX coefficients:  0.8000  0.2000
 SCF Error: norm([F,P])=      0.402472484664, max([F,P])=      0.100560586402
 orbitals (Q,E):
 ---------------
 A :1...9            ( 2.00   -19.3427)  ( 2.00   -10.4585)  ( 2.00    -1.2243)  ( 2.00    -0.8320)
                     ( 2.00    -0.6517)  ( 2.00    -0.5705)  ( 2.00    -0.4881)  ( 2.00    -0.4642)
                     ( 0.00    -0.2582)

 CYCLE    3
  SDIIS (wt  0.000): -0.4770  1.4770
 A-DIIS (wt  1.000):  0.0000  1.0000
  DIIS coefficients:  0.0000  1.0000
 SCF Error: norm([F,P])=      0.160716655495, max([F,P])=      0.036739879452
 orbitals (Q,E):
 ---------------
 A :1...9            ( 2.00   -19.2386)  ( 2.00   -10.4253)  ( 2.00    -1.1485)  ( 2.00    -0.7755)
                     ( 2.00    -0.6233)  ( 2.00    -0.5495)  ( 2.00    -0.4675)  ( 2.00    -0.4421)
                     ( 0.00    -0.2196)

 CYCLE    4
  SDIIS (wt  0.000):  0.9248 -0.8684  0.9436
 A-DIIS (wt  1.000):  0.0000  0.7104  0.2896
  DIIS coefficients:  0.0000  0.7104  0.2896
 SCF Error: norm([F,P])=      0.268989014281, max([F,P])=      0.071865057496
 orbitals (Q,E):
 ---------------
 A :1...9            ( 2.00   -19.3053)  ( 2.00   -10.3966)  ( 2.00    -1.1685)  ( 2.00    -0.7775)
                     ( 2.00    -0.6306)  ( 2.00    -0.5540)  ( 2.00    -0.4836)  ( 2.00    -0.4535)
                     ( 0.00    -0.2178)

 CYCLE    5
  SDIIS (wt  0.938): -0.1067  0.2721 -0.0191  0.8537
 A-DIIS (wt  0.062):  0.0000  0.0000  0.0000  1.0000
  DIIS coefficients: -0.1001  0.2553 -0.0180  0.8628
 SCF Error: norm([F,P])=      0.022654185332, max([F,P])=      0.007110238615
 orbitals (Q,E):
 ---------------
 A :1...9            ( 2.00   -19.3035)  ( 2.00   -10.4005)  ( 2.00    -1.1635)  ( 2.00    -0.7778)
                     ( 2.00    -0.6300)  ( 2.00    -0.5543)  ( 2.00    -0.4809)  ( 2.00    -0.4543)
                     ( 0.00    -0.2161)

 CYCLE    6
  SDIIS (wt  1.000):  0.0111 -0.0179 -0.0007  0.0924  0.9152
  DIIS coefficients:  0.0111 -0.0179 -0.0007  0.0924  0.9152
 SCF Error: norm([F,P])=      0.004193473650, max([F,P])=      0.000995653158
 orbitals (Q,E):
 ---------------
 A :1...9            ( 2.00   -19.3041)  ( 2.00   -10.4005)  ( 2.00    -1.1639)  ( 2.00    -0.7774)
                     ( 2.00    -0.6299)  ( 2.00    -0.5541)  ( 2.00    -0.4810)  ( 2.00    -0.4541)
                     ( 0.00    -0.2160)

 CYCLE    7
  SDIIS (wt  1.000): -0.0002 -0.0023 -0.0040  0.0142  0.2023  0.7900
  DIIS coefficients: -0.0002 -0.0023 -0.0040  0.0142  0.2023  0.7900
 SCF Error: norm([F,P])=      0.000529579457, max([F,P])=      0.000110905502
 orbitals (Q,E):
 ---------------
 A :1...9            ( 2.00   -19.3040)  ( 2.00   -10.4002)  ( 2.00    -1.1638)  ( 2.00    -0.7774)
                     ( 2.00    -0.6298)  ( 2.00    -0.5541)  ( 2.00    -0.4810)  ( 2.00    -0.4540)
                     ( 0.00    -0.2159)

 CYCLE    8
  SDIIS (wt  1.000):  0.0005 -0.0010 -0.0002  0.0002  0.0216  0.2074  0.7715
  DIIS coefficients:  0.0005 -0.0010 -0.0002  0.0002  0.0216  0.2074  0.7715
 SCF Error: norm([F,P])=      0.000115028982, max([F,P])=      0.000026558629
 orbitals (Q,E):
 ---------------
 A :1...9            ( 2.00   -19.3041)  ( 2.00   -10.4003)  ( 2.00    -1.1638)  ( 2.00    -0.7774)
                     ( 2.00    -0.6298)  ( 2.00    -0.5541)  ( 2.00    -0.4810)  ( 2.00    -0.4541)
                     ( 0.00    -0.2160)

 CYCLE    9
  SDIIS (wt  1.000): -0.0000  0.0000 -0.0000 -0.0007 -0.0048  0.0169  0.2510  0.7376
  DIIS coefficients: -0.0000  0.0000 -0.0000 -0.0007 -0.0048  0.0169  0.2510  0.7376
 SCF Error: norm([F,P])=      0.000033753829, max([F,P])=      0.000007725632
 orbitals (Q,E):
 ---------------
 A :1...9            ( 2.00   -19.3041)  ( 2.00   -10.4002)  ( 2.00    -1.1638)  ( 2.00    -0.7774)
                     ( 2.00    -0.6298)  ( 2.00    -0.5541)  ( 2.00    -0.4810)  ( 2.00    -0.4541)
                     ( 0.00    -0.2159)

 CYCLE   10
  SDIIS (wt  1.000): -0.0000  0.0000  0.0000 -0.0000 -0.0008 -0.0054 -0.0002  0.0400  0.9664
  DIIS coefficients: -0.0000  0.0000  0.0000 -0.0000 -0.0008 -0.0054 -0.0002  0.0400  0.9664
 SCF Error: norm([F,P])=      0.000002846579, max([F,P])=      0.000000884935
 orbitals (Q,E):
 ---------------
 A :1...9            ( 2.00   -19.3041)  ( 2.00   -10.4002)  ( 2.00    -1.1638)  ( 2.00    -0.7774)
                     ( 2.00    -0.6298)  ( 2.00    -0.5541)  ( 2.00    -0.4810)  ( 2.00    -0.4541)
                     ( 0.00    -0.2159)

 SCF CONVERGED
 cosmo_calcen: 0.5 (esolb+esolc) (Hartrees) =   -0.124694

 Solvation energy (screening term,uncorrected) =    -78.246758 kcal/mol

 Solvation energy (dispersion and cavitation terms) =      0.444701 kcal/mol
 Solvation Energy Contributions (Hartrees)
          esola   esolb+esolc
     0.12469413   -0.24938827
 esol last cycle   -0.12469413

 CYCLE   11
1
 ***************************************************************************************************



                                                *******************
                                                *  R E S U L T S  *
                                                *******************
  
  
 Hartree-Fock exchange energy:   -14.0346409722542     
 *** Using FIT density in Focky
  SDIIS (wt  1.000):  0.0000 -0.0000  0.0000  0.0000  0.0001 -0.0009 -0.0060 -0.0146  0.0144  1.0070
  DIIS coefficients:  0.0000 -0.0000  0.0000  0.0000  0.0001 -0.0009 -0.0060 -0.0146  0.0144  1.0070
 SCF Error: norm([F,P])=      0.000000509362, max([F,P])=      0.000000154010

 Orbital Energies, per Irrep and Spin:
 ======================================
                        Occup              E (au)              E (eV)       Diff (eV) with prev. cycle
                        -----      --------------------        ------       --------------------------
 A
               1        2.000     -0.19304094057333E+02      -525.291              -5.79E-07
               2        2.000     -0.10400245437758E+02      -283.005               1.66E-06
               3        2.000     -0.11638393599373E+01       -31.670               4.56E-07
               4        2.000     -0.77739434001219E+00       -21.154               5.92E-07
               5        2.000     -0.62983857304909E+00       -17.139               1.47E-06
               6        2.000     -0.55408247859053E+00       -15.077              -1.15E-07
               7        2.000     -0.48098910886649E+00       -13.088               1.01E-07
               8        2.000     -0.45406278019122E+00       -12.356               5.80E-07
               9        0.000     -0.21594647702110E+00        -5.876
              10        0.000     -0.68306374060925E-02        -0.186
              11        0.000      0.34142767766163E-01         0.929
              12        0.000      0.60718422228461E-01         1.652
              13        0.000      0.10754992321745E+00         2.927
              14        0.000      0.15402419752752E+00         4.191
              15        0.000      0.17238149347013E+00         4.691
              16        0.000      0.20515363274017E+00         5.583
              17        0.000      0.23894843420681E+00         6.502
              18        0.000      0.27557573621375E+00         7.499
  
 HOMO :        8 A                -0.45406278019122E+00
 LUMO :        9 A                -0.21594647702110E+00
  
 cosmo_calcen: 0.5 (esolb+esolc) (Hartrees) =   -0.124694

 Solvation energy (screening term,uncorrected) =    -78.246761 kcal/mol

 Solvation energy (dispersion and cavitation terms) =      0.444701 kcal/mol
 Solvation Energy Contributions (Hartrees)
          esola   esolb+esolc
     0.12469414   -0.24938828
 esol last cycle   -0.12469414


 All Electron Calculation, thus no Orbital Energies of the Core Orbitals are calculated


 Fit test: (difference of exact and fit density, squared integrated, result summed over spins)
         Sum-of-Fragments:                             0.00000000026328
         Orthogonalized Fragments:                     0.00004192378462
         SCF:                                          0.00019445434214



 ==========================
 Electron Density at Nuclei
 ==========================
  
 The electron density is calculated at points on a small sphere around the center of a nucleus.
 The printed electron density is the average electron density on these points.
 The radius of the sphere is the printed approximate finite nuclear radius.

         Atom        Nuclear Radius (Angstrom)             Electron Density (a.u.)
         ----        -------------------------             -----------------------
     1)   C                 0.0000320678                              126.46752
     2)   H                 0.0000181514                                0.45767
     3)   O                 0.0000345546                              310.71753
     4)   H                 0.0000181514                                0.48569
     5)   H                 0.0000181514                                0.48115



 =======================================
 M U L L I K E N   P O P U L A T I O N S
 =======================================
  
 The survey below gives for each atom:
 a) the total charge (Z minus electrons)
 b) the net spin polarization (nr of electrons spin-A minus spin-B)
 c) for each spin the atomic electron valence density (integrated) per L-value.

 Atom              Charge    Spin density          S         P         D         F
 ----              ------    ------------       ------    ------    ------    ------
 1 C               0.8085                       3.0115    2.1136    0.0663    0.0000
 2 H               0.4074                       0.5186    0.0740    0.0000    0.0000
 3 O              -0.3214                       3.8140    4.4513    0.0560    0.0000
 4 H               0.0504                       0.8869    0.0627    0.0000    0.0000
 5 H               0.0551                       0.8842    0.0607    0.0000    0.0000

 Populations of individual BAS functions
 ----------------------------------------
 1 C            0.4798  1.5297  0.0317  1.0459 -0.0756 -0.1482 -0.0996 -0.1433  0.7506  0.5641
                0.7278  0.1726  0.1248  0.1649  0.0051  0.0150  0.0177  0.0092  0.0153  0.0041
 2 H            0.0681  0.0161  0.4344  0.0252  0.0245  0.0243
 4 H            0.0230  0.5013  0.3626  0.0188  0.0262  0.0177
 5 H            0.0303  0.4945  0.3593  0.0193  0.0181  0.0234
 3 O            0.6109  1.3832 -0.0255  1.0550  0.7905  0.2398  0.2686  0.2762  0.9201  0.9436
                0.9474  0.1804  0.3266  0.3485  0.0261  0.0051  0.0181 -0.0020  0.0100 -0.0013

 Gross Charges per Atom (Z minus electrons)
 ==========================================
             0.8085    0.4074   -0.3214    0.0504    0.0551
 Net Total:  1.00000000


 Atom-Atom Population Matrix (off-diagonal elements not doubled)
 ===============================================================

     1 :     4.0695
     2 :    -0.0292    0.2781
     3 :     0.3313    0.3598    7.6817
     4 :     0.4144   -0.0129   -0.0217    0.6467
     5 :     0.4055   -0.0033   -0.0296   -0.0769    0.6493



 =================================================
 H I R S H F E L D   C H A R G E   A N A L Y S I S
 =================================================
  
 For each fragment: the (numerical) integral of rho(scf) * rho(fragment)/rho(sum-of-fragments)
 (nuclear charges are included, electrons are counted negative)

 The fragments and their ordering are defined in the early G E O M E T R Y output section.
 If you use single-atom fragments, this usually implies that all atoms of the same
 chemical type are grouped together. This may not be the order in which you listed them
 in the input file!

    1  C                         0.3614
    2  H                         0.2787
    3  H                         0.1681
    4  H                         0.1686
    5  O                         0.0232

 Sum of these charges (accuracy NumInt/Tails) =           1.00002128



 =============================
 V O R O N O I   C H A R G E S
 =============================
  
 For each atom: the (numerical) integral of the total electronic charge density in its Voronoi cell,
 i.e. the region of space that is closer to that atom than to any other atom.
 (cf. Wigner-Seitz cells in crystals)

 Within the Voronoi cell the subintegrals over the atomic sphere and the remaining part are evaluated
 separately to give the numbers of electrons (negative charge) in these regions.
 The net total charge in the cell (including the nuclear charge) is also given.

 Values are provided for
    a) the Initial (sum-of-fragments) density
    b) the Orthogonalized-Fragments density
    c) the SCF density
    d) the Voronoi Deformation Density (VDD): the difference SCF-Initial for the complete atomic cell


  Atom                Initial                    OrthFrag                   SCF
             Sphere RestCell NetTotal   Sphere RestCell NetTotal   Sphere RestCell NetTotal      VDD
 -----       ------------------------   ------------------------   ------------------------    -----
    1 C      -2.257   -2.647    1.095   -2.386   -2.780    0.835   -2.274   -2.340    1.385    0.290
    2 H      -0.079   -1.467   -0.547   -0.082   -1.335   -0.417   -0.098   -1.114   -0.212    0.334
    3 O      -2.821   -4.748    0.431   -2.990   -4.670    0.339   -2.837   -4.753    0.410   -0.021
    4 H      -0.073   -1.416   -0.489   -0.093   -1.284   -0.377   -0.104   -1.187   -0.291    0.198
    5 H      -0.072   -1.419   -0.491   -0.092   -1.288   -0.380   -0.103   -1.190   -0.292    0.199
 ---------------------------------------------------------------------------------------------------
 Total NetCharge:               0.000                      0.000                      1.000    1.000
 (accuracy NumInt/Tails)

 Remark: the 'NetTotal' Voronoi charges often do not match the Mulliken and/or Hirshfeld charges very
 well. This is caused by the fact that chemically different atoms are not treated in accordance with
 their relative sizes. (Voronoi cells are defined by boundary planes halfway between the atoms.)
 However, the CHANGES in charge, comparing 'Initial' to 'SCF' for instance, do give a fair indication
 of the flow of charge caused by the relaxation from sum-of-fragments to self-consistency.

 Warning: the absolute accuracy of the VDD charges obtained using the Fuzzy Cells (Becke) integration
 scheme is much poorer than the one obtained with an 'equivalent' Voronoi integration grid. 



 =================================================================
 M U L T I P O L E   D E R I V E D   C H A R G E   A N A L Y S I S
 =================================================================

 This charge analysis uses the atomic multipoles (obtained from the fitted density) up to some level X,
 and reconstructs these multipoles exactly (up to level X) by distributing charges over all atoms.
 This is achieved by using Lagrange multipliers and a weight function to keep the multipoles local.

 Dummy atoms can be included (by setting INCDUM in MDC-block to 1) to obtain a fractional charge.
 This is generally useful and necessary only for small symmetrical molecules, when there are not
 enough degrees of freedom to reconstruct the multipoles.

 Since the atomic multipoles are reconstructed up to level X,
 the molecular multipoles are represented also up to level X.
 The recommended level is to reconstruct up to quadrupole : -> MDC-q charges.

 See: M. Swart, P.Th. van Duijnen, J.G. Snijders, J.Comput.Chem., (2001), p. 79-88.

 ------------------------------------------------------------- 
 Atomic electronic multipole moments from SCF equations (a.u.)
 ------------------------------------------------------------- 

   atom        charge        dip-x     dip-y     dip-z      quad-xx   quad-xy   quad-xz   quad-yy   quad-yz   quad-zz
 --------------------------------------------------------------------------------------------------------------------
    1 C      0.620128    -0.022573 -0.020927 -0.017802    -0.060624  0.030705  0.030866  0.080752  0.039688 -0.020128
    2 H      0.213757     0.130686 -0.012065 -0.031422     0.101645 -0.013306 -0.043160 -0.074267 -0.008974 -0.027379
    3 O      0.002918     0.230432  0.090996 -0.232282     0.525859 -0.208120 -0.000062 -0.309636 -0.098527 -0.216222
    4 H      0.078164     0.044645  0.074616 -0.016278    -0.014929  0.043108 -0.051283  0.017060 -0.065477 -0.002131
    5 H      0.085032    -0.019283  0.069498  0.057961     0.014997 -0.056105 -0.067938 -0.018225  0.042072  0.003228

 --------------------------------------- 
 Multipole derived atomic charges (a.u.)
 --------------------------------------- 

 The MDC-m charges are just the Monopole terms in the multipole expansion, while for the MDC-d charges
 also the Dipoles are reconstructed. The usually preferred charges are the MDC-q charges.
 These reconstruct the Monopoles, Dipoles and Quadrupoles (both atomic AND molecular).

        Atom    Level:     MDC-m        MDC-d        MDC-q
 ---------------------------------------------------------
     1     C            0.620128     0.493178     0.740381
     2     H            0.213757     0.465007     0.362027
     3     O            0.002918    -0.275357    -0.207897
     4     H            0.078164     0.160135     0.042311
     5     H            0.085032     0.157037     0.063178

 ------------------------------------------------ 
 Average absolute deviations in atomic multipoles
 ------------------------------------------------ 

 Stated here are the average differences between the atomic multipoles
 and the reconstructed atomic multipoles (from the distributed charges).
 If these values are not zero, this means there are not enough degrees of freedom,
 to be able to reconstruct the atomic multipoles. (This usually happens only
 for small and/or highly symmetric molecules). If this is the case, one could add
 dummy atoms as extra point charges (and setting INCDUM in MDC-block to 1).

 Level:                                 MDC-d        MDC-q
 ---------------------------------------------------------
 Charge   (a.u.)                       0.0000       0.0000
 Dipole   (Debye)                      0.0000       0.1185
 Quad.    (a.u.)                       0.1081       0.0238

 --------------------------------------- 
 Represented molecular multipole moments
 --------------------------------------- 

 Given here are the Molecular multipole moments from the atomic charges, and from the Fit Density.
 Note that the atomic charges represent the latter, NOT the ones from the Exact density.

            Q (a.u.)             Dipole moment (Debye)                                          Quadrupole moment (a.u.)
                                 x         y         z              xx        xy        xz        yy        yz        zz
------------------------------------------------------------------------------------------------------------------------
MDC-m         1.0000        7.9671    3.9717   13.7959         -4.5631    5.8678   25.7928  -17.7099   12.3577   22.2731
MDC-d         1.0000        8.8920    4.4855   13.1864          0.3535    6.6621   27.3680  -17.4141   13.7530   17.0607
MDC-q         1.0000        8.3195    3.9999   13.3189         -1.6102    5.8667   26.0920  -17.4622   12.4433   19.0724
 
Fit.Dens.     1.0000        8.8920    4.4855   13.1864          0.6785    6.7379   27.3346  -17.4432   14.0612   16.7647



 =============
 Dipole Moment  ***  (Debye)  ***
 =============
  
 Vector   :         8.89392083      4.48802960     13.18504105
 Magnitude:        16.52542117

 This molecular dipole moment is calculated with analytic integration
 ************************************************************************************
 Since the molecule is NOT NEUTRAL, the dipole moment depends on the choice of origin
 ************************************************************************************



 =========================================
 Quadrupole Moment (Buckingham convention)  ***  (a.u.)  ***
 =========================================
  
      quad-xx        quad-xy        quad-xz        quad-yy        quad-yz        quad-zz
      0.68885092     6.63970715    27.27009428   -17.44073946    14.02325313    16.75188854

 This molecular quadrupole moment is calculated with analytic integration
1



 ===========================
 B O N D I N G   E N E R G Y  ***  (decomposition)  ***
 ===========================
  
*** IMPORTANT NOTE ***

The bond energy is computed as an energy difference between molecule and
fragments. In particular when the fragments are single atoms, they are usually
computed as SPHERICALLY SYMMETRIC and SPIN-RESTRICTED. Obviously, this usually
does NOT represent the true atomic groundstate.

To obtain the 'real' bond energy, (atomic) correction terms must be applied
for the true (multiplet) fragment ground state. See ref: E.J.Baerends,
V.Branchadell, M.Sodupe, Chem.Phys.Lett.265 (1997) 481

General theoretical background on the bond energy decomposition scheme used
here (Morokuma-Ziegler) can be found in the review paper:
F.M. Bickelhaupt and E.J. Baerends,
"Kohn-Sham Density Functional Theory: Predicting and Understanding Chemistry"
In: Rev. Comput. Chem.; Lipkowitz, K. B. and Boyd, D. B., Eds.;
Wiley-VCH: New York, 2000, Vol. 15, 1-86.

Symbols used in the Bickelhaupt-Baerends (BB) paper are given below to make
the direct connection to that paper, where detailed explanations can be found
on the meaning of the various terms.


                                                   hartree              eV         kcal/mol           kJ/mol
                                      --------------------     -----------       ----------      -----------
  pauli hf:                              0.155811015091421          4.2398            97.77           409.08
  elstat hf:                            -0.291123145947420         -7.9219          -182.68          -764.34

Pauli Repulsion
  Kinetic (Delta T^0):                   7.841752774879505        213.3850          4920.77         20588.52
  Delta V^Pauli Coulomb:                -4.023331619009117       -109.4804         -2524.68        -10563.26
  Delta V^Pauli Hybrid-X:               -0.717801625056843        -19.5324          -450.43         -1884.59
  Delta V^Pauli Hybrid-C:               -0.066194925388528         -1.8013           -41.54          -173.79
  Delta V^Pauli HF-Exchange:            -0.135312130855999         -3.6820           -84.91          -355.26
                                      --------------------     -----------       ----------      -----------
  Total Pauli Repulsion:                 2.899112474569018         78.8889          1819.22          7611.62
 (Total Pauli Repulsion =
  Delta E^Pauli in BB paper)

Steric Interaction
  Pauli Repulsion (Delta E^Pauli):       2.899112474569018         78.8889          1819.22          7611.62
  Electrostatic Interaction:            -0.543395763710698        -14.7866          -340.99         -1426.69
 (Electrostatic Interaction =
  Delta V_elstat in the BB paper)
                                      --------------------     -----------       ----------      -----------
  Total Steric Interaction:              2.355716710858320         64.1023          1478.23          6184.93
 (Total Steric Interaction =
  Delta E^0 in the BB paper)

Orbital Interactions
  A:                                    -3.088131850814768        -84.0323         -1937.83         -8107.89
  HF orbital correction:                -0.000005676765292         -0.0002            -0.00            -0.01
                                      --------------------     -----------       ----------      -----------
  Total Orbital Interactions:           -3.088137527580060        -84.0325         -1937.84         -8107.90

Alternative Decomposition Orb.Int.
  Kinetic:                              -7.358626327512606       -200.2384         -4617.61        -19320.07
  Coulomb:                               4.017686945323082        109.3268          2521.14         10548.44
  XC+HF:                                 0.252801854609464          6.8791           158.64           663.73
  XC only:                               0.390685189663328         10.6311           245.16          1025.74
  HF Orbital:                           -0.137883335053864         -3.7520           -86.52          -362.01
                                      --------------------     -----------       ----------      -----------
  Total Orbital Interactions:           -3.088137527580060        -84.0325         -1937.84         -8107.90

  Residu (E=Steric+OrbInt+Res):         -0.000081246599597         -0.0022            -0.05            -0.21


  Solvation Energy (el):                -0.124694137941555         -3.3931           -78.25          -327.38

Post-SCF Solvation Energies
  Solvation Energy (cd):                 0.000708675487997          0.0193             0.44             1.86

Total Bonding Energy:                   -0.856487525774895        -23.3062          -537.45         -2248.71


Summary of Bonding Energy (energy terms are taken from the energy decomposition above)
======================================================================================

  Electrostatic Energy:                 -0.543395763710698        -14.7866          -340.99         -1426.69
  Kinetic Energy:                        0.483126447366899         13.1465           303.17          1268.45
  Coulomb (Steric+OrbInt) Energy:       -0.005725920285631         -0.1558            -3.59           -15.03
  XC Energy:                            -0.666506826691906        -18.1366          -418.24         -1749.91
  Solvation:                            -0.123985462453558         -3.3738           -77.80          -325.52
                                      --------------------     -----------       ----------      -----------
  Total Bonding Energy:                 -0.856487525774894        -23.3062          -537.45         -2248.71


Correction terms (incorporated in energies above; only for test purposes):

1. Indication of fit-quality: 1st-order fit-correction used in the energy (hartree):  -0.0003641966
2. Electrostatic (Fit correction):   0.0000000000
1



 =======================================================
 S F O   P O P U L A T I O N S ,   M O   A N A L Y S I S
 =======================================================
  
 A Mulliken population analysis is performed on (input-)selected MOs. All populations refer to SFOs.
 BAS populations may have been printed directly after the SCF part.


                                       === A ===


 SFO contributions (%) per orbital
 (multiplication by the orbital occupation yields the SFO Gross Populations)

 Orb.:        1      2      3      4      5      6      7      8      9     10     11     12
 occup:     2.00   2.00   2.00   2.00   2.00   2.00   2.00   2.00   0.00   0.00   0.00   0.00
 CF+SFO     ----   ----   ----   ----   ----   ----   ----   ----   ----   ----   ----   ----
 ------
      1:   -0.00 100.03   0.00   0.00  -0.00  -0.00  -0.00   0.00  -0.00  -0.00  -0.00  -0.00
      2:   -0.01   0.00   5.72  37.88   4.30   0.15   2.73   0.05   8.67  -2.66   6.08   1.43
      3:   -0.00  -0.00  -1.16   1.03  -0.25  -0.01   0.04   0.10  -0.31  -3.88 -11.21  -0.14
      6:   -0.00   0.00   2.00   0.11  -0.03  20.70   5.81   8.28  13.05   2.94   1.08  12.55
      7:   -0.00  -0.00  -0.44  -0.08  -0.21   2.57   0.20   0.23   0.21   0.21   0.61 -18.87
      9:    0.00  -0.00   1.47   0.67  11.85   6.47   5.51   2.45  30.73   6.63  -0.85   4.63
     10:    0.00   0.00  -0.25  -0.30   0.86   1.09  -0.42   0.38   0.39   0.52   0.04   2.93
     12:    0.00   0.00   1.18   0.18  11.50   5.17   7.07  11.23  18.06   4.63   3.29  -3.90
     13:    0.00  -0.00  -0.23   0.13   0.53  -0.86   0.17   1.75   0.25   0.15   0.52  -4.76
     20:   -0.02  -0.00   7.92   4.59   7.07  -0.06  -0.02   2.26   0.14  34.96   6.74   3.02
     21:   -0.00  -0.00   0.00   1.67   0.75  -0.16  -0.03   1.16  -0.00  22.88  -3.47   0.02
     23:   -0.01  -0.00   1.42  -0.09  -0.04   0.05   0.04  -0.10   0.04   3.43   0.35  -0.06
     24:   -0.00  -0.00   0.02   0.06  -0.00   0.07   1.09  -0.00   0.20  -0.00   0.22   0.07
     26:    0.00  -0.01   0.83   9.57  16.90   1.09   0.13  14.45   1.49  10.78  12.22  29.45
     27:    0.00  -0.00  -0.39   0.19   0.50   0.06   0.01   1.04   0.40  10.85  17.65  11.64
     28:   -0.00  -0.00  -0.01  -0.29  -0.01  -0.02   0.00   0.32   0.01  -0.83  -0.32   1.60
     29:   -0.00  -0.00  -0.01   0.52   0.22   0.08   0.15  -0.02   0.03   1.53   0.07  -0.03
     32:    0.00  -0.01   0.86  11.86   0.85  20.58   0.05   8.62   1.79   1.82  27.72  40.79
     33:   -0.00  -0.00  -0.28   0.28  -0.21   0.66  -0.01   1.01   0.57   2.73  32.01  15.32
     34:   -0.00  -0.00  -0.01  -0.40   0.03   0.21   0.00   0.13   0.03  -0.22  -0.49   1.34
     35:    0.00  -0.00   0.22   0.72   0.05   0.01   0.16  -0.20   0.65   0.08   1.28  -0.21
     38:  100.04   0.00   0.00  -0.00   0.00   0.00   0.00   0.00  -0.00  -0.00  -0.00  -0.00
     39:    0.00   0.00  76.75   4.15   2.02   2.98   0.11   4.81   0.04   1.77   1.26   0.28
     40:   -0.00   0.00  -0.09   0.09  -0.10   0.05   0.02  -0.15  -0.06  -3.59  -1.29  -1.25
     43:    0.00  -0.00   0.01  19.48  38.36   1.44   3.62   4.87   2.80   0.16   0.29   1.51
     44:   -0.00  -0.00   0.05  -1.21   0.21   0.22  -0.00   0.01  -0.21   0.97   0.04  -3.31
     46:    0.00   0.00   0.97   5.66  -0.01   3.32  65.17   1.90  12.02   0.15   1.47   0.90
     49:    0.00   0.00   2.74   0.87   2.53  32.30   6.72  33.50   7.17   1.04   1.44   1.36
     50:   -0.00   0.00  -0.07  -0.04   0.11  -0.16  -0.01   0.11  -0.43   0.32  -0.14   1.04


 Summation over all MOs, multiplied by occupation: Total SFO Gross Populations in this Irrep
 ===========================================================================================

     2.00    1.02   -0.01   -0.00   -0.00    0.74    0.05   -0.01    0.57    0.03   -0.01    0.73
     0.03   -0.01    0.01    0.01    0.01    0.02    0.02    0.43    0.07    0.02    0.03    0.02
     0.02    0.86    0.03   -0.00    0.02    0.03    0.02    0.86    0.03   -0.00    0.02    0.02
     0.02    2.00    1.82   -0.00   -0.00    0.00    1.36   -0.01   -0.00    1.54   -0.00   -0.00
     1.57   -0.00   -0.00    0.01    0.01    0.01    0.02    0.01



 List of selected MOs, ordered by energy, with the most significant SFO gross populations
 ========================================================================================

 Each percentage contribution in the table below corres ponds to the indicated SFO.
 In general, a SFO may be a linear combination of several Fragment Orbitals on the same,
 or on symmetry-related Fragments. Only the first 'member' of such a combination is
 specified here. A full definition of all SFOs is given in an earlier part of the output.
 The numbering of the SFOs in this table does NOT include the Core Orbitals, and starts
 from one for each symmetry representation, as in the SFO definition list earlier.

       E(eV)  Occ       MO           %     SFO (first member)   E(eV)  Occ   Fragment
 -------------------------------------------------------------------------------------

     -21.154  2.00     4 A         37.88%     2 S             -15.345  2.00     1 C
                                   19.48%     1 P:x            -9.826  1.33     5 O
                                   11.86%     1 S              -6.641  1.00     4 H
                                    9.57%     1 S              -6.641  1.00     3 H
                                    5.66%     1 P:y            -9.826  1.33     5 O
                                    4.59%     1 S              -6.641  1.00     2 H
                                    4.15%     2 S             -26.409  2.00     5 O
                                    1.67%     2 S               2.836  0.00     2 H
                                   -1.21%     2 P:x            10.335  0.00     5 O
                                    1.03%     3 S              10.943  0.00     1 C
     -17.139  2.00     5 A         38.36%     1 P:x            -9.826  1.33     5 O
                                   16.90%     1 S              -6.641  1.00     3 H
                                   11.85%     1 P:y            -5.110  0.67     1 C
                                   11.50%     1 P:z            -5.110  0.67     1 C
                                    7.07%     1 S              -6.641  1.00     2 H
                                    4.30%     2 S             -15.345  2.00     1 C
                                    2.53%     1 P:z            -9.826  1.33     5 O
                                    2.02%     2 S             -26.409  2.00     5 O
     -15.077  2.00     6 A         32.30%     1 P:z            -9.826  1.33     5 O
                                   20.70%     1 P:x            -5.110  0.67     1 C
                                   20.58%     1 S              -6.641  1.00     4 H
                                    6.47%     1 P:y            -5.110  0.67     1 C
                                    5.17%     1 P:z            -5.110  0.67     1 C
                                    3.32%     1 P:y            -9.826  1.33     5 O
                                    2.98%     2 S             -26.409  2.00     5 O
                                    2.57%     2 P:x             5.204  0.00     1 C
                                    1.44%     1 P:x            -9.826  1.33     5 O
                                    1.09%     1 S              -6.641  1.00     3 H
                                    1.09%     2 P:y             5.204  0.00     1 C
     -13.088  2.00     7 A         65.17%     1 P:y            -9.826  1.33     5 O
                                    7.07%     1 P:z            -5.110  0.67     1 C
                                    6.72%     1 P:z            -9.826  1.33     5 O
                                    5.81%     1 P:x            -5.110  0.67     1 C
                                    5.51%     1 P:y            -5.110  0.67     1 C
                                    3.62%     1 P:x            -9.826  1.33     5 O
                                    2.73%     2 S             -15.345  2.00     1 C
                                    1.09%     1 P:y            11.865  0.00     2 H
     -12.356  2.00     8 A         33.50%     1 P:z            -9.826  1.33     5 O
                                   14.45%     1 S              -6.641  1.00     3 H
                                   11.23%     1 P:z            -5.110  0.67     1 C
                                    8.62%     1 S              -6.641  1.00     4 H
                                    8.28%     1 P:x            -5.110  0.67     1 C
                                    4.87%     1 P:x            -9.826  1.33     5 O
                                    4.81%     2 S             -26.409  2.00     5 O
                                    2.45%     1 P:y            -5.110  0.67     1 C
                                    2.26%     1 S              -6.641  1.00     2 H
                                    1.90%     1 P:y            -9.826  1.33     5 O
                                    1.75%     2 P:z             5.204  0.00     1 C
                                    1.16%     2 S               2.836  0.00     2 H
                                    1.04%     2 S               2.836  0.00     3 H
                                    1.01%     2 S               2.836  0.00     4 H
      -5.876  0.00     9 A         30.73%     1 P:y            -5.110  0.67     1 C
                                   18.06%     1 P:z            -5.110  0.67     1 C
                                   13.05%     1 P:x            -5.110  0.67     1 C
                                   12.02%     1 P:y            -9.826  1.33     5 O
                                    8.67%     2 S             -15.345  2.00     1 C
                                    7.17%     1 P:z            -9.826  1.33     5 O
                                    2.80%     1 P:x            -9.826  1.33     5 O
                                    1.79%     1 S              -6.641  1.00     4 H
                                    1.49%     1 S              -6.641  1.00     3 H



 =======================================================================
 Electrostatic potential at the Nuclei due to electrons and other nuclei
 =======================================================================
  
         Atom                  Potential
         ----                  ---------
     1)   C                  14.31507465
     2)   H                   0.63379301
     3)   O                  21.96416122
     4)   H                   0.73394613
     5)   H                   0.74654135
 Mulliken charges used for AMS results%charges...


    =====================
     CALCULATION RESULTS
    =====================

Energy (hartree)            -0.85648753


--------------
Atomic charges
--------------
  Index   Atom    Charge
      1      C    0.8085
      2      H    0.4074
      3      O   -0.3214
      4      H    0.0504
      5      H    0.0551


Dipole moment vector    (Debye):     8.89392083    4.48802960   13.18504105
              magnitude (Debye):    16.52542117


-----------------------
Molecular orbitals info
-----------------------
n orbitals:               56
n spin:                    1

Note: only printing virtual orbitals with
      energy smaller than HOMO + 100. eV

HOMO (eV):             -12.3557
LUMO (eV):              -5.8762
HOMO-LUMO gap (eV):      6.4795

   Index   Energy (eV)    Occupation
      47       82.2629         0.000       
      46       76.6101         0.000       
      45       67.4136         0.000       
      44       65.9019         0.000       
      43       62.2533         0.000       
      42       61.7106         0.000       
      41       57.8762         0.000       
      40       54.3405         0.000       
      39       52.7088         0.000       
      38       52.0177         0.000       
      37       44.0609         0.000       
      36       43.0010         0.000       
      35       40.3438         0.000       
      34       36.8719         0.000       
      33       34.3994         0.000       
      32       32.5651         0.000       
      31       31.0519         0.000       
      30       29.7502         0.000       
      29       25.9026         0.000       
      28       23.6575         0.000       
      27       22.7210         0.000       
      26       20.9013         0.000       
      25       17.7619         0.000       
      24       15.5892         0.000       
      23       13.7876         0.000       
      22       13.5172         0.000       
      21       11.3571         0.000       
      20       10.3697         0.000       
      19        9.4580         0.000       
      18        7.4988         0.000       
      17        6.5021         0.000       
      16        5.5825         0.000       
      15        4.6907         0.000       
      14        4.1912         0.000       
      13        2.9266         0.000       
      12        1.6522         0.000       
      11        0.9291         0.000       
      10       -0.1859         0.000       
       9       -5.8762         0.000 < LUMO
       8      -12.3557         2.000 < HOMO
       7      -13.0884         2.000       
       6      -15.0774         2.000       
       5      -17.1388         2.000       
       4      -21.1540         2.000       
       3      -31.6697         2.000       
       2     -283.0051         2.000       
       1     -525.2911         2.000       

AMS application finished. Exiting.
NORMAL TERMINATION
     Total cpu time:      11.20
  Total system time:       2.16
 Total elapsed time:      14.74
